# vtk DataFile Version 3.0
LAPLACIEN  2D
ASCII
DATASET UNSTRUCTURED_GRID
 POINTS        1857  float
   3.1250000000000000E-002  0.93750000000000000        0.0000000000000000     
   6.2500000000000000E-002  0.93750000000000000        0.0000000000000000     
   6.2500000000000000E-002  0.96875000000000000        0.0000000000000000     
   1.8749999999999999E-002  0.95625000000000004        0.0000000000000000     
   4.0625000000000001E-002  0.95937499999999998        0.0000000000000000     
   4.3749999999999997E-002  0.98124999999999996        0.0000000000000000     
   2.1874999999999999E-002  0.97812500000000002        0.0000000000000000     
   9.3750000000000000E-002  0.93750000000000000        0.0000000000000000     
  0.12500000000000000       0.93750000000000000        0.0000000000000000     
  0.12500000000000000       0.96875000000000000        0.0000000000000000     
   8.1250000000000003E-002  0.95625000000000004        0.0000000000000000     
  0.10312499999999999       0.95937499999999998        0.0000000000000000     
  0.10625000000000000       0.98124999999999996        0.0000000000000000     
   8.4375000000000006E-002  0.97812500000000002        0.0000000000000000     
   3.1250000000000000E-002  0.87500000000000000        0.0000000000000000     
   6.2500000000000000E-002  0.87500000000000000        0.0000000000000000     
   6.2500000000000000E-002  0.90625000000000000        0.0000000000000000     
   1.8749999999999999E-002  0.89375000000000004        0.0000000000000000     
   4.0625000000000001E-002  0.89687499999999998        0.0000000000000000     
   4.3749999999999997E-002  0.91874999999999996        0.0000000000000000     
   2.1874999999999999E-002  0.91562500000000002        0.0000000000000000     
   9.3750000000000000E-002  0.87500000000000000        0.0000000000000000     
  0.12500000000000000       0.87500000000000000        0.0000000000000000     
  0.12500000000000000       0.90625000000000000        0.0000000000000000     
   8.1250000000000003E-002  0.89375000000000004        0.0000000000000000     
  0.10312499999999999       0.89687499999999998        0.0000000000000000     
  0.10625000000000000       0.91874999999999996        0.0000000000000000     
   8.4375000000000006E-002  0.91562500000000002        0.0000000000000000     
  0.15625000000000000       0.93750000000000000        0.0000000000000000     
  0.18750000000000000       0.93750000000000000        0.0000000000000000     
  0.18750000000000000       0.96875000000000000        0.0000000000000000     
  0.14374999999999999       0.95625000000000004        0.0000000000000000     
  0.16562499999999999       0.95937499999999998        0.0000000000000000     
  0.16875000000000001       0.98124999999999996        0.0000000000000000     
  0.14687500000000001       0.97812500000000002        0.0000000000000000     
  0.21875000000000000       0.93750000000000000        0.0000000000000000     
  0.25000000000000000       0.93750000000000000        0.0000000000000000     
  0.25000000000000000       0.96875000000000000        0.0000000000000000     
  0.20624999999999999       0.95625000000000004        0.0000000000000000     
  0.22812499999999999       0.95937499999999998        0.0000000000000000     
  0.23125000000000001       0.98124999999999996        0.0000000000000000     
  0.20937500000000001       0.97812500000000002        0.0000000000000000     
  0.15625000000000000       0.87500000000000000        0.0000000000000000     
  0.18750000000000000       0.87500000000000000        0.0000000000000000     
  0.18750000000000000       0.90625000000000000        0.0000000000000000     
  0.14374999999999999       0.89375000000000004        0.0000000000000000     
  0.16562499999999999       0.89687499999999998        0.0000000000000000     
  0.16875000000000001       0.91874999999999996        0.0000000000000000     
  0.14687500000000001       0.91562500000000002        0.0000000000000000     
  0.21875000000000000       0.87500000000000000        0.0000000000000000     
  0.25000000000000000       0.87500000000000000        0.0000000000000000     
  0.25000000000000000       0.90625000000000000        0.0000000000000000     
  0.20624999999999999       0.89375000000000004        0.0000000000000000     
  0.22812499999999999       0.89687499999999998        0.0000000000000000     
  0.23125000000000001       0.91874999999999996        0.0000000000000000     
  0.20937500000000001       0.91562500000000002        0.0000000000000000     
   3.1250000000000000E-002  0.81250000000000000        0.0000000000000000     
   6.2500000000000000E-002  0.81250000000000000        0.0000000000000000     
   6.2500000000000000E-002  0.84375000000000000        0.0000000000000000     
   1.8749999999999999E-002  0.83125000000000004        0.0000000000000000     
   4.0625000000000001E-002  0.83437499999999998        0.0000000000000000     
   4.3749999999999997E-002  0.85624999999999996        0.0000000000000000     
   2.1874999999999999E-002  0.85312500000000002        0.0000000000000000     
   9.3750000000000000E-002  0.81250000000000000        0.0000000000000000     
  0.12500000000000000       0.81250000000000000        0.0000000000000000     
  0.12500000000000000       0.84375000000000000        0.0000000000000000     
   8.1250000000000003E-002  0.83125000000000004        0.0000000000000000     
  0.10312499999999999       0.83437499999999998        0.0000000000000000     
  0.10625000000000000       0.85624999999999996        0.0000000000000000     
   8.4375000000000006E-002  0.85312500000000002        0.0000000000000000     
   3.1250000000000000E-002  0.75000000000000000        0.0000000000000000     
   6.2500000000000000E-002  0.75000000000000000        0.0000000000000000     
   6.2500000000000000E-002  0.78125000000000000        0.0000000000000000     
   1.8749999999999999E-002  0.76875000000000004        0.0000000000000000     
   4.0625000000000001E-002  0.77187499999999998        0.0000000000000000     
   4.3749999999999997E-002  0.79374999999999996        0.0000000000000000     
   2.1874999999999999E-002  0.79062500000000002        0.0000000000000000     
   9.3750000000000000E-002  0.75000000000000000        0.0000000000000000     
  0.12500000000000000       0.75000000000000000        0.0000000000000000     
  0.12500000000000000       0.78125000000000000        0.0000000000000000     
   8.1250000000000003E-002  0.76875000000000004        0.0000000000000000     
  0.10312499999999999       0.77187499999999998        0.0000000000000000     
  0.10625000000000000       0.79374999999999996        0.0000000000000000     
   8.4375000000000006E-002  0.79062500000000002        0.0000000000000000     
  0.15625000000000000       0.81250000000000000        0.0000000000000000     
  0.18750000000000000       0.81250000000000000        0.0000000000000000     
  0.18750000000000000       0.84375000000000000        0.0000000000000000     
  0.14374999999999999       0.83125000000000004        0.0000000000000000     
  0.16562499999999999       0.83437499999999998        0.0000000000000000     
  0.16875000000000001       0.85624999999999996        0.0000000000000000     
  0.14687500000000001       0.85312500000000002        0.0000000000000000     
  0.21875000000000000       0.81250000000000000        0.0000000000000000     
  0.25000000000000000       0.81250000000000000        0.0000000000000000     
  0.25000000000000000       0.84375000000000000        0.0000000000000000     
  0.20624999999999999       0.83125000000000004        0.0000000000000000     
  0.22812499999999999       0.83437499999999998        0.0000000000000000     
  0.23125000000000001       0.85624999999999996        0.0000000000000000     
  0.20937500000000001       0.85312500000000002        0.0000000000000000     
  0.15625000000000000       0.75000000000000000        0.0000000000000000     
  0.18750000000000000       0.75000000000000000        0.0000000000000000     
  0.18750000000000000       0.78125000000000000        0.0000000000000000     
  0.14374999999999999       0.76875000000000004        0.0000000000000000     
  0.16562499999999999       0.77187499999999998        0.0000000000000000     
  0.16875000000000001       0.79374999999999996        0.0000000000000000     
  0.14687500000000001       0.79062500000000002        0.0000000000000000     
  0.21875000000000000       0.75000000000000000        0.0000000000000000     
  0.25000000000000000       0.75000000000000000        0.0000000000000000     
  0.25000000000000000       0.78125000000000000        0.0000000000000000     
  0.20624999999999999       0.76875000000000004        0.0000000000000000     
  0.22812499999999999       0.77187499999999998        0.0000000000000000     
  0.23125000000000001       0.79374999999999996        0.0000000000000000     
  0.20937500000000001       0.79062500000000002        0.0000000000000000     
  0.28125000000000000       0.93750000000000000        0.0000000000000000     
  0.31250000000000000       0.93750000000000000        0.0000000000000000     
  0.31250000000000000       0.96875000000000000        0.0000000000000000     
  0.26874999999999999       0.95625000000000004        0.0000000000000000     
  0.29062500000000002       0.95937499999999998        0.0000000000000000     
  0.29375000000000001       0.98124999999999996        0.0000000000000000     
  0.27187499999999998       0.97812500000000002        0.0000000000000000     
  0.34375000000000000       0.93750000000000000        0.0000000000000000     
  0.37500000000000000       0.93750000000000000        0.0000000000000000     
  0.37500000000000000       0.96875000000000000        0.0000000000000000     
  0.33124999999999999       0.95625000000000004        0.0000000000000000     
  0.35312500000000002       0.95937499999999998        0.0000000000000000     
  0.35625000000000001       0.98124999999999996        0.0000000000000000     
[...]
 CELL_DATA        3584
 SCALARS Cells_density float
 LOOKUP_TABLE default
    0.99999961885767962855E+00
    0.10000000027232303079E+01
    0.99999988858529154090E+00
    0.99999996400492119353E+00
    0.10000000149966279395E+01
    0.99999950160024175805E+00
    0.99999999205448508732E+00
    0.99999978669422062705E+00
    0.99999995186011636505E+00
    0.10000000001720166232E+01
    0.99999982586693125786E+00
    0.99999999257766436500E+00
    0.99999993131897879639E+00
    0.99999992963373529609E+00
    0.99999996177919758811E+00
    0.10000001031339567081E+01
    0.99999989918916631915E+00
    0.99999997176455412973E+00
    0.10000000354176301620E+01
    0.99999950784858360198E+00
    0.10000000116146328111E+01
    0.99999983217517907086E+00
    0.99999999939413508621E+00
    0.99999962204615788774E+00
    0.10000000498924108694E+01
    0.99999993071818826795E+00
    0.10000000078597401920E+01
    0.99999995639182903684E+00
    0.99999962486654558891E+00
    0.10000000240047401956E+01
    0.99999989568938452145E+00
    0.99999997067113155502E+00
    0.10000001046428934615E+01
    0.99999990326752874470E+00
    0.99999995910832906176E+00
    0.10000000310559893357E+01
    0.99999953946798592064E+00
    0.10000000165426032872E+01
    0.99999986075721536416E+00
    0.10000000129942732130E+01
    0.99999994218375742872E+00
    0.10000000128921355813E+01
    0.99999996538986801742E+00
    0.10000001208068667324E+01
    0.99999990596902399442E+00
    0.99999997839558729673E+00
    0.10000001252247729955E+01
    0.99999990932877780292E+00
    0.99999996859480122513E+00
    0.10000001225511607750E+01
    0.99999990119055603977E+00
    0.99999999051886878654E+00
    0.10000001301625609518E+01
    0.99999993487407712323E+00
    0.10000000787011580350E+01
    0.10000000894809086827E+01
    0.99999996212167041598E+00
    0.10000001031332006463E+01
    0.99999989919810539085E+00
    0.99999997176788002484E+00
    0.10000000354204880981E+01
    0.99999950784854374497E+00
    0.10000000116243805692E+01
    0.99999983226428312832E+00
    0.99999999994175658991E+00
    0.99999962424771804415E+00
    0.10000000506922142041E+01
    0.99999993351599258951E+00
    0.10000000079983260015E+01
    0.99999995645631978292E+00
    0.99999996211985620054E+00
    0.10000001031289322828E+01
    0.99999989920045184721E+00
    0.99999997176873289817E+00
    0.10000000354174218842E+01
    0.99999950784799140902E+00
    0.10000000116241383186E+01
    0.99999983226639688194E+00
    0.99999999994229682443E+00
    0.99999962425539856703E+00
    0.10000000506959920710E+01
    0.99999993351614069326E+00
    0.10000000080116551171E+01
    0.99999995646666028914E+00
    0.99999996593725770655E+00
    0.10000001208893052329E+01
    0.99999990598296750743E+00
    0.99999997840005983019E+00
    0.10000001252226873305E+01
    0.99999990932985749481E+00
    0.99999996860498130413E+00
    0.10000001226328487647E+01
    0.99999990158223250880E+00
    0.99999999270214134928E+00
    0.10000001310311150693E+01
    0.99999993780232276919E+00
    0.10000000788605718505E+01
    0.10000000895538430079E+01
    0.99999996593114937049E+00
    0.10000001208794415675E+01
    0.99999990598944688003E+00
    0.99999997840163157292E+00
    0.10000001252113146499E+01
    0.99999990933389459880E+00
    0.99999996860499684725E+00
    0.10000001226412777999E+01
    0.99999990159055662797E+00
    0.99999999271357853381E+00
    0.10000001310349426742E+01
    0.99999993780279028410E+00
    0.10000000789020107028E+01
    0.10000000895751470775E+01
    0.99999962486609317303E+00
    0.10000000240049407019E+01
    0.99999989569162428538E+00
    0.99999997067637513837E+00
    0.10000001046852309283E+01
    0.99999990357764922955E+00
    0.99999996122079470862E+00
    0.10000000317171702235E+01
    0.99999954154580739107E+00
    0.10000000170544904865E+01
    0.99999986084061343039E+00
    0.10000000130029449430E+01
    0.99999994223298782625E+00
    0.10000000129937391957E+01
    0.99999996538975899352E+00
    0.10000001207995961039E+01
    0.99999990597218513244E+00
    0.99999997840206134025E+00
    0.10000001252527137563E+01
    0.99999990960831364184E+00
    0.99999997053731548569E+00
    0.10000001230116242201E+01
    0.99999990196088461847E+00
    0.99999999080035506527E+00
    0.10000001302048906471E+01
    0.99999993487743088494E+00
    0.10000000787437262062E+01
    0.10000000895651404154E+01
    0.99999962486513649385E+00
    0.10000000240017568043E+01
    0.99999989569226455099E+00
    0.99999997067879309309E+00
    0.10000001046809028349E+01
    0.99999990357572121624E+00
    0.99999996122074652494E+00
    0.10000000317208852518E+01
    0.99999954155333692363E+00
    0.10000000170550542578E+01
    0.99999986084271907938E+00
    0.10000000130025321621E+01
    0.99999994224329236125E+00
    0.10000000130070891835E+01
    0.99999996539334623513E+00
    0.10000001207881856757E+01
    0.99999990597372501178E+00
    0.99999997840851873043E+00
    0.10000001252428367682E+01
    0.99999990960208895441E+00
    0.99999997053744149600E+00
    0.10000001230153028331E+01
    0.99999990197209642773E+00
    0.99999999080866519563E+00
    0.10000001302132264236E+01
    0.99999993487747540488E+00
    0.10000000787648666289E+01
    0.10000000896065486256E+01
    0.99999996593723938787E+00
    0.10000001208738515945E+01
    0.99999990598907939621E+00
    0.99999997840982235431E+00
    0.10000001252422685560E+01
    0.99999990960956475217E+00
    0.99999997054747291614E+00
    0.10000001231044539640E+01
    0.99999990251153247911E+00
    0.99999999299065989167E+00
    0.10000001310768620311E+01
    0.99999993780535900711E+00
    0.10000000789256504596E+01
    0.10000000896611829226E+01
    0.99999996592725870492E+00
    0.10000001208524287311E+01
    0.99999990600204680113E+00
    0.99999997841421228717E+00
    0.10000001252179260280E+01
    0.99999990961737283968E+00
    0.99999997054767253424E+00
    0.10000001231225950082E+01
    0.99999990252900172738E+00
    0.99999999301385544825E+00
    0.10000001310847828062E+01
    0.99999993780581597491E+00
    0.10000000790101839510E+01
    0.10000000897090592922E+01
    0.99999996594466822319E+00
    0.10000001208492157456E+01
    0.99999990599352395204E+00
    0.99999997842271581838E+00
    0.10000001252208463587E+01
    0.99999990959950602054E+00
    0.99999997054757383541E+00
    0.10000001231123432088E+01
    0.99999990253457105016E+00
    0.99999999300811881486E+00
    0.10000001310948229971E+01
    0.99999993780544771393E+00
    0.10000000789735106199E+01
    0.10000000897456675641E+01
    0.99999996593626361285E+00
    0.10000001208041027212E+01
    0.99999990601555488468E+00
    0.99999997843629540029E+00
    0.10000001251727925755E+01
    0.99999990960889817426E+00
    0.99999997054783640316E+00
    0.10000001231435458049E+01
    0.99999990257054138798E+00
    0.99999999304979281245E+00
    0.10000001311158643880E+01
    0.99999993780595108905E+00
    0.10000000791217487084E+01
    0.10000000898572460883E+01
    0.99999996211498498599E+00
    0.10000001031264897922E+01
    0.99999989920351950445E+00
    0.99999997176782928765E+00
    0.10000000354160238913E+01
    0.99999950784818181226E+00
    0.10000000116242562243E+01
    0.99999983226923161439E+00
    0.99999999994342547716E+00
    0.99999962425823263334E+00
    0.10000000506977928527E+01
    0.99999993351538707387E+00
    0.10000000080276025827E+01
    0.99999995646768335966E+00
    0.99999996210749997338E+00
    0.10000001031265242091E+01
    0.99999989920654908104E+00
    0.99999997176548593991E+00
    0.10000000354139915171E+01
    0.99999950785290336874E+00
    0.10000000116248635162E+01
    0.99999983227227640104E+00
    0.99999999994396726599E+00
    0.99999962425812194411E+00
    0.10000000506952044788E+01
    0.99999993351547988851E+00
    0.10000000080426136861E+01
    0.99999995645735939576E+00
    0.99999996591898077103E+00
    0.10000001208708972911E+01
    0.99999990599811383607E+00
    0.99999997840098331370E+00
    0.10000001251991601503E+01
    0.99999990934211235860E+00
    0.99999996860532580634E+00
    0.10000001226539136923E+01
    0.99999990159739426954E+00
    0.99999999272537609674E+00
    0.10000001310343547001E+01
    0.99999993780276796862E+00
    0.10000000789553502578E+01
    0.10000000895837961590E+01
    0.99999996590928141860E+00
    0.10000001208600208802E+01
    0.99999990600661470275E+00
    0.99999997839708221203E+00
    0.10000001251893000376E+01
    0.99999990935413285431E+00
    0.99999996861089457401E+00
    0.10000001226640620189E+01
    0.99999990159966045677E+00
    0.99999999273885231688E+00
    0.10000001310268984422E+01
    0.99999993780269991195E+00
    0.10000000790094898395E+01
    0.10000000895733567319E+01
    0.99999996210423902632E+00
    0.10000001031250989048E+01
    0.99999989920876131144E+00
    0.99999997176202815030E+00
    0.10000000354138633973E+01
    0.99999950785927882446E+00
    0.10000000116259457617E+01
    0.99999983227486810566E+00
    0.99999999994429411565E+00
    0.99999962425285349177E+00
    0.10000000506892219310E+01
    0.99999993351551152987E+00
    0.10000000080530500046E+01
    0.99999995643656924837E+00
    0.99999996210223285331E+00
    0.10000001031256657846E+01
    0.99999989920975729252E+00
    0.99999997175817190165E+00
    0.10000000354155504922E+01
    0.99999950786582303408E+00
    0.10000000116274903039E+01
    0.99999983227625754978E+00
    0.99999999994400257108E+00
    0.99999962424451482867E+00
    0.10000000506811261847E+01
    0.99999993351552962650E+00
    0.10000000080564332983E+01
    0.99999995640953553977E+00
    0.99999996590097650628E+00
    0.10000001208532516284E+01
    0.99999990601272603641E+00
    0.99999997839128484944E+00
    0.10000001251844687911E+01
    0.99999990936706195654E+00
    0.99999996861862450181E+00
    0.10000001226712607050E+01
    0.99999990159668772360E+00
    0.99999999274834627805E+00
    0.10000001310141566346E+01
    0.99999993780275842070E+00
    0.10000000790498830838E+01
    0.10000000895448186711E+01
    0.99999996589595174790E+00
    0.10000001208518989326E+01
    0.99999990601532207091E+00
    0.99999997838490339852E+00
    0.10000001251853287698E+01
    0.99999990937799088098E+00
    0.99999996862614193294E+00
    0.10000001226745096616E+01
    0.99999990158915985639E+00
    0.99999999275176709723E+00
    0.10000001309993227228E+01
    0.99999993780281537514E+00
    0.10000000790678782447E+01
    0.10000000895054670380E+01
    0.99999996590124706763E+00
    0.10000001208329458713E+01
    0.99999990602126098693E+00
    0.99999997841374044238E+00
    0.10000001251888832599E+01
    0.99999990963569751479E+00
    0.99999997055232836551E+00
    0.10000001231473925056E+01
    0.99999990254555903846E+00
    0.99999999304311104620E+00
    0.10000001310843174007E+01
    0.99999993780588580794E+00
    0.10000000791304453074E+01
    0.10000000897364047514E+01
    0.99999996587924211422E+00
    0.10000001208072777370E+01
    0.99999990604093891289E+00
    0.99999997840584653463E+00
    0.10000001251649910383E+01
    0.99999990966222185307E+00
    0.99999997056624601033E+00
    0.10000001231702215776E+01
    0.99999990255372850356E+00
    0.99999999307580356156E+00
    0.10000001310686770228E+01
    0.99999993780573781521E+00
    0.10000000792586323239E+01
    0.10000000897210281625E+01
    0.99999996588167772149E+00
    0.10000001207305271311E+01
    0.99999990370363289749E+00
    0.99999997840347243372E+00
    0.10000001251080374853E+01
    0.99999990964625873335E+00
    0.99999997055211731212E+00
    0.10000001231993655981E+01
    0.99999990260993176783E+00
    0.99999999311304599292E+00
    0.10000001311251096592E+01
    0.99999993780721530001E+00
    0.10000000793791512521E+01
    0.10000000899442522684E+01
    0.99999989743530226516E+00
    0.10000001187100713285E+01
    0.99999983854190233057E+00
    0.99999997724363121065E+00
    0.10000001250453616208E+01
    0.99999990970721996941E+00
    0.99999997058324530119E+00
    0.10000001232516735339E+01
    0.99999990263148108571E+00
    0.99999999319010235421E+00
    0.10000001310892172590E+01
    0.99999993692434041570E+00
    0.10000000796665717839E+01
    0.10000000899164112056E+01
    0.99999996586089867634E+00
    0.10000001207917683654E+01
    0.99999990605389244003E+00
    0.99999997839424303869E+00
    0.10000001251534669233E+01
    0.99999990968881580233E+00
    0.99999997058248579762E+00
    0.10000001231867867713E+01
    0.99999990255062842781E+00
    0.99999999309947162907E+00
    0.10000001310411026356E+01
    0.99999993780586238223E+00
    0.10000000793510017694E+01
    0.10000000896665912631E+01
    0.99999996585084405254E+00
    0.10000001207882578402E+01
    0.99999990605892652429E+00
    0.99999997838236731607E+00
    0.10000001251542824932E+01
    0.99999990970937424617E+00
    0.99999997059686873691E+00
    0.10000001231940525148E+01
    0.99999990253827564235E+00
    0.99999999310866949376E+00
    0.10000001310115087527E+01
    0.99999993780595486381E+00
    0.10000000793901171470E+01
    0.10000000895941336676E+01
    0.99999989264324395943E+00
    0.10000001186337603709E+01
    0.99999983856899965495E+00
    0.99999997721942424089E+00
    0.10000001250253158780E+01
    0.99999990976199126802E+00
    0.99999997061815071309E+00
    0.10000001232858009015E+01
    0.99999990262386739825E+00
    0.99999999324180843807E+00
    0.10000001310272073063E+01
    0.99999993686291832606E+00
    0.10000000798561023974E+01
    0.10000000897915028997E+01
    0.99999989262672339674E+00
    0.10000001186293516753E+01
    0.99999983857681096211E+00
    0.99999997719754274428E+00
    0.10000001250283827581E+01
    0.99999990980042541278E+00
    0.99999997064599621677E+00
    0.10000001232987301147E+01
    0.99999990259885829236E+00
    0.99999999325774246994E+00
    0.10000001309679684702E+01
    0.99999993686329902154E+00
    0.10000000799206554269E+01
    0.10000000896503842274E+01
    0.99999962486541560391E+00
    0.10000000240000808116E+01
    0.99999989569145630863E+00
    0.99999997068184343085E+00
    0.10000001046784103842E+01
    0.99999990357064461044E+00
    0.99999996121979894959E+00
    0.10000000317225872237E+01
    0.99999954155781878296E+00
    0.10000000170556135881E+01
    0.99999986084550784859E+00
    0.10000000130025805678E+01
    0.99999994224449173519E+00
    0.10000000130229416140E+01
    0.99999996540168545334E+00
    0.10000001207759270372E+01
    0.99999990597280141724E+00
    0.99999997841700927204E+00
    0.10000001252343091451E+01
    0.99999990958963924648E+00
    0.99999997053749734022E+00
    0.10000001230143391595E+01
    0.99999990198569799205E+00
    0.99999999081508961218E+00
    0.10000001302257761626E+01
    0.99999993487753269239E+00
    0.10000000787735043861E+01
    0.10000000896598335576E+01
    0.99999962487012972190E+00
    0.10000000239980586514E+01
    0.99999989568912173166E+00
    0.99999997068482160412E+00
    0.10000001046784141590E+01
    0.99999990356327028707E+00
    0.99999996121986844955E+00
    0.10000000317199353450E+01
    0.99999954155774239961E+00
    0.10000000170561087476E+01
    0.99999986084852454660E+00
    0.10000000130031894141E+01
    0.99999994223417332240E+00
    0.10000000130379784746E+01
    0.99999996541368041392E+00
    0.10000001207660811353E+01
    0.99999990596893406636E+00
    0.99999997842549170901E+00
    0.10000001252234198557E+01
    0.99999990958000839480E+00
    0.99999997053756939369E+00
    0.10000001230069794911E+01
    0.99999990199904120747E+00
    0.99999999081738921713E+00
    0.10000001302359249333E+01
    0.99999993488313898560E+00
    0.10000000787630396459E+01
    0.10000000897139365019E+01
    0.99999996596303264429E+00
    0.10000001208201647618E+01
    0.99999990599274091174E+00
    0.99999997844182564322E+00
    0.10000001252012584718E+01
    0.99999990957313056317E+00
    0.99999997054769163007E+00
    0.10000001231115958067E+01
    0.99999990256557991231E+00
    0.99999999302416686664E+00
    0.10000001311195612086E+01
    0.99999993781017626482E+00
    0.10000000790007790297E+01
    0.10000000898658674142E+01
    0.99999996597373641549E+00
    0.10000001207392841263E+01
    0.99999990598215593440E+00
    0.99999997612246649403E+00
    0.10000001250987093915E+01
    0.99999990955402295878E+00
    0.99999997054912026506E+00
    0.10000001231525619261E+01
    0.99999990263555404990E+00
    0.99999999308872689063E+00
    0.10000001311716053554E+01
    0.99999993781024654194E+00
    0.10000000792087271329E+01
    0.10000000901144563414E+01
    0.99999996598954699056E+00
    0.10000001207962927463E+01
    0.99999990598490928750E+00
    0.99999997846146082559E+00
    0.10000001251756183152E+01
    0.99999990955117812330E+00
    0.99999997054782385764E+00
    0.10000001230959609799E+01
    0.99999990259824922401E+00
    0.99999999303240927340E+00
    0.10000001311422235251E+01
    0.99999993782409868359E+00
    0.10000000789854550654E+01
    0.10000000899940022503E+01
    0.99999996603460661326E+00
    0.10000001206765678496E+01
    0.99999990482162937067E+00
    0.99999991095673756991E+00
    0.10000001230762112225E+01
    0.99999984109651707254E+00
    0.99999996966506587981E+00
    0.10000001231162560789E+01
    0.99999990271251271157E+00
    0.99999999311032439220E+00
    0.10000001312237796203E+01
    0.99999993784137020114E+00
    0.10000000791808034695E+01
    0.10000000904018819803E+01
    0.99999962487646920639E+00
    0.10000000239979194294E+01
    0.99999989568567337894E+00
    0.99999997068705848147E+00
    0.10000001046770474744E+01
    0.99999990356002788072E+00
    0.99999996121988787845E+00
    0.10000000317139410289E+01
    0.99999954155244719090E+00
    0.10000000170564486979E+01
    0.99999986085112890777E+00
    0.10000000130042769886E+01
    0.99999994221337862310E+00
    0.10000000130483894800E+01
    0.99999996542660618548E+00
    0.10000001207612496668E+01
    0.99999990596315035951E+00
    0.99999997843161470001E+00
    0.10000001252166408339E+01
    0.99999990957166284833E+00
    0.99999997053765099508E+00
    0.10000001229942863112E+01
    0.99999990200852562072E+00
    0.99999999081441970361E+00
    0.10000001302431182904E+01
    0.99999993489082983356E+00
    0.10000000787345257880E+01
    0.10000000897543228628E+01
    0.99999962488347537981E+00
    0.10000000239995614493E+01
    0.99999989568172165111E+00
    0.99999997068810730916E+00
    0.10000001046776316738E+01
    0.99999990355801138264E+00
    0.99999996121992518194E+00
    0.10000000317058534982E+01
    0.99999954154413817076E+00
    0.10000000170561560431E+01
    0.99999986085254588541E+00
    0.10000000130056874159E+01
    0.99999994218635179788E+00
    0.10000000130517421315E+01
    0.99999996543760905077E+00
    0.10000001207621398436E+01
    0.99999990595684051797E+00
    0.99999997843425469934E+00
    0.10000001252152506126E+01
    0.99999990956663187269E+00
    0.99999997053764888566E+00
    0.10000001229794486246E+01
    0.99999990201195054773E+00
    0.99999999080688684039E+00
    0.10000001302463352726E+01
    0.99999993489834793081E+00
    0.10000000786951939169E+01
    0.10000000897723775317E+01
    0.99999996601614882241E+00
    0.10000001207847606377E+01
    0.99999990597328713982E+00
    0.99999997847443555798E+00
    0.10000001251601002838E+01
    0.99999990953282258399E+00
    0.99999997054794409479E+00
    0.10000001230683754905E+01
    0.99999990262196680746E+00
    0.99999999302929865053E+00
    0.10000001311588098130E+01
    0.99999993784034635347E+00
    0.10000000789310072857E+01
    0.10000000900863585951E+01
    0.99999996608938679366E+00
    0.10000001206565822809E+01
    0.99999990479733458226E+00
    0.99999991098405327516E+00
    0.10000001229997050878E+01
    0.99999983630377864419E+00
    0.99999996960342085739E+00
    0.10000001230543149600E+01
    0.99999990276429162606E+00
    0.99999999310270659691E+00
    0.10000001312579267498E+01
    0.99999993787628649322E+00