# vtk DataFile Version 3.0
LAPLACIEN  2D
ASCII
DATASET UNSTRUCTURED_GRID
 POINTS        1857  float
   3.1250000000000000E-002  0.93750000000000000        0.0000000000000000     
   6.2500000000000000E-002  0.93750000000000000        0.0000000000000000     
   6.2500000000000000E-002  0.96875000000000000        0.0000000000000000     
   1.8749999999999999E-002  0.95625000000000004        0.0000000000000000     
   4.0625000000000001E-002  0.95937499999999998        0.0000000000000000     
   4.3749999999999997E-002  0.98124999999999996        0.0000000000000000     
   2.1874999999999999E-002  0.97812500000000002        0.0000000000000000     
   9.3750000000000000E-002  0.93750000000000000        0.0000000000000000     
  0.12500000000000000       0.93750000000000000        0.0000000000000000     
  0.12500000000000000       0.96875000000000000        0.0000000000000000     
   8.1250000000000003E-002  0.95625000000000004        0.0000000000000000     
  0.10312499999999999       0.95937499999999998        0.0000000000000000     
  0.10625000000000000       0.98124999999999996        0.0000000000000000     
   8.4375000000000006E-002  0.97812500000000002        0.0000000000000000     
   3.1250000000000000E-002  0.87500000000000000        0.0000000000000000     
   6.2500000000000000E-002  0.87500000000000000        0.0000000000000000     
   6.2500000000000000E-002  0.90625000000000000        0.0000000000000000     
   1.8749999999999999E-002  0.89375000000000004        0.0000000000000000     
   4.0625000000000001E-002  0.89687499999999998        0.0000000000000000     
   4.3749999999999997E-002  0.91874999999999996        0.0000000000000000     
   2.1874999999999999E-002  0.91562500000000002        0.0000000000000000     
   9.3750000000000000E-002  0.87500000000000000        0.0000000000000000     
  0.12500000000000000       0.87500000000000000        0.0000000000000000     
  0.12500000000000000       0.90625000000000000        0.0000000000000000     
   8.1250000000000003E-002  0.89375000000000004        0.0000000000000000     
  0.10312499999999999       0.89687499999999998        0.0000000000000000     
  0.10625000000000000       0.91874999999999996        0.0000000000000000     
   8.4375000000000006E-002  0.91562500000000002        0.0000000000000000     
  0.15625000000000000       0.93750000000000000        0.0000000000000000     
  0.18750000000000000       0.93750000000000000        0.0000000000000000     
  0.18750000000000000       0.96875000000000000        0.0000000000000000     
  0.14374999999999999       0.95625000000000004        0.0000000000000000     
  0.16562499999999999       0.95937499999999998        0.0000000000000000     
  0.16875000000000001       0.98124999999999996        0.0000000000000000     
  0.14687500000000001       0.97812500000000002        0.0000000000000000     
  0.21875000000000000       0.93750000000000000        0.0000000000000000     
  0.25000000000000000       0.93750000000000000        0.0000000000000000     
  0.25000000000000000       0.96875000000000000        0.0000000000000000     
  0.20624999999999999       0.95625000000000004        0.0000000000000000     
  0.22812499999999999       0.95937499999999998        0.0000000000000000     
  0.23125000000000001       0.98124999999999996        0.0000000000000000     
  0.20937500000000001       0.97812500000000002        0.0000000000000000     
  0.15625000000000000       0.87500000000000000        0.0000000000000000     
  0.18750000000000000       0.87500000000000000        0.0000000000000000     
  0.18750000000000000       0.90625000000000000        0.0000000000000000     
  0.14374999999999999       0.89375000000000004        0.0000000000000000     
  0.16562499999999999       0.89687499999999998        0.0000000000000000     
  0.16875000000000001       0.91874999999999996        0.0000000000000000     
  0.14687500000000001       0.91562500000000002        0.0000000000000000     
  0.21875000000000000       0.87500000000000000        0.0000000000000000     
  0.25000000000000000       0.87500000000000000        0.0000000000000000     
  0.25000000000000000       0.90625000000000000        0.0000000000000000     
  0.20624999999999999       0.89375000000000004        0.0000000000000000     
  0.22812499999999999       0.89687499999999998        0.0000000000000000     
  0.23125000000000001       0.91874999999999996        0.0000000000000000     
  0.20937500000000001       0.91562500000000002        0.0000000000000000     
   3.1250000000000000E-002  0.81250000000000000        0.0000000000000000     
   6.2500000000000000E-002  0.81250000000000000        0.0000000000000000     
   6.2500000000000000E-002  0.84375000000000000        0.0000000000000000     
   1.8749999999999999E-002  0.83125000000000004        0.0000000000000000     
   4.0625000000000001E-002  0.83437499999999998        0.0000000000000000     
   4.3749999999999997E-002  0.85624999999999996        0.0000000000000000     
   2.1874999999999999E-002  0.85312500000000002        0.0000000000000000     
   9.3750000000000000E-002  0.81250000000000000        0.0000000000000000     
  0.12500000000000000       0.81250000000000000        0.0000000000000000     
  0.12500000000000000       0.84375000000000000        0.0000000000000000     
   8.1250000000000003E-002  0.83125000000000004        0.0000000000000000     
  0.10312499999999999       0.83437499999999998        0.0000000000000000     
  0.10625000000000000       0.85624999999999996        0.0000000000000000     
   8.4375000000000006E-002  0.85312500000000002        0.0000000000000000     
   3.1250000000000000E-002  0.75000000000000000        0.0000000000000000     
   6.2500000000000000E-002  0.75000000000000000        0.0000000000000000     
   6.2500000000000000E-002  0.78125000000000000        0.0000000000000000     
   1.8749999999999999E-002  0.76875000000000004        0.0000000000000000     
   4.0625000000000001E-002  0.77187499999999998        0.0000000000000000     
   4.3749999999999997E-002  0.79374999999999996        0.0000000000000000     
   2.1874999999999999E-002  0.79062500000000002        0.0000000000000000     
   9.3750000000000000E-002  0.75000000000000000        0.0000000000000000     
  0.12500000000000000       0.75000000000000000        0.0000000000000000     
  0.12500000000000000       0.78125000000000000        0.0000000000000000     
   8.1250000000000003E-002  0.76875000000000004        0.0000000000000000     
  0.10312499999999999       0.77187499999999998        0.0000000000000000     
  0.10625000000000000       0.79374999999999996        0.0000000000000000     
   8.4375000000000006E-002  0.79062500000000002        0.0000000000000000     
  0.15625000000000000       0.81250000000000000        0.0000000000000000     
  0.18750000000000000       0.81250000000000000        0.0000000000000000     
  0.18750000000000000       0.84375000000000000        0.0000000000000000     
  0.14374999999999999       0.83125000000000004        0.0000000000000000     
  0.16562499999999999       0.83437499999999998        0.0000000000000000     
  0.16875000000000001       0.85624999999999996        0.0000000000000000     
  0.14687500000000001       0.85312500000000002        0.0000000000000000     
  0.21875000000000000       0.81250000000000000        0.0000000000000000     
  0.25000000000000000       0.81250000000000000        0.0000000000000000     
  0.25000000000000000       0.84375000000000000        0.0000000000000000     
  0.20624999999999999       0.83125000000000004        0.0000000000000000     
  0.22812499999999999       0.83437499999999998        0.0000000000000000     
  0.23125000000000001       0.85624999999999996        0.0000000000000000     
  0.20937500000000001       0.85312500000000002        0.0000000000000000     
  0.15625000000000000       0.75000000000000000        0.0000000000000000     
  0.18750000000000000       0.75000000000000000        0.0000000000000000     
  0.18750000000000000       0.78125000000000000        0.0000000000000000     
  0.14374999999999999       0.76875000000000004        0.0000000000000000     
  0.16562499999999999       0.77187499999999998        0.0000000000000000     
  0.16875000000000001       0.79374999999999996        0.0000000000000000     
  0.14687500000000001       0.79062500000000002        0.0000000000000000     
  0.21875000000000000       0.75000000000000000        0.0000000000000000     
  0.25000000000000000       0.75000000000000000        0.0000000000000000     
  0.25000000000000000       0.78125000000000000        0.0000000000000000     
  0.20624999999999999       0.76875000000000004        0.0000000000000000     
  0.22812499999999999       0.77187499999999998        0.0000000000000000     
  0.23125000000000001       0.79374999999999996        0.0000000000000000     
  0.20937500000000001       0.79062500000000002        0.0000000000000000     
  0.28125000000000000       0.93750000000000000        0.0000000000000000     
  0.31250000000000000       0.93750000000000000        0.0000000000000000     
  0.31250000000000000       0.96875000000000000        0.0000000000000000     
  0.26874999999999999       0.95625000000000004        0.0000000000000000     
  0.29062500000000002       0.95937499999999998        0.0000000000000000     
  0.29375000000000001       0.98124999999999996        0.0000000000000000     
  0.27187499999999998       0.97812500000000002        0.0000000000000000     
  0.34375000000000000       0.93750000000000000        0.0000000000000000     
  0.37500000000000000       0.93750000000000000        0.0000000000000000     
  0.37500000000000000       0.96875000000000000        0.0000000000000000     
  0.33124999999999999       0.95625000000000004        0.0000000000000000     
  0.35312500000000002       0.95937499999999998        0.0000000000000000     
  0.35625000000000001       0.98124999999999996        0.0000000000000000     
[...]
 CELL_DATA        3584
 SCALARS Cells_density float
 LOOKUP_TABLE default
    0.99999846939161052273E+00
    0.99999979305980402078E+00
    0.99999953848879319374E+00
    0.99999971361153894289E+00
    0.99999982628974115606E+00
    0.99999817629785525686E+00
    0.99999984674720021616E+00
    0.99999912557209380548E+00
    0.99999969395378363046E+00
    0.99999987986142990781E+00
    0.99999926176096443076E+00
    0.99999985495089183107E+00
    0.99999988747390722299E+00
    0.99999987831351677681E+00
    0.99999974006193848020E+00
    0.10000002374523289106E+01
    0.99999963009519299284E+00
    0.99999976710474103303E+00
    0.99999991047642067254E+00
    0.99999821716170667063E+00
    0.99999993103789841520E+00
    0.99999925201136219410E+00
    0.99999983679025583605E+00
    0.99999849712534738533E+00
    0.99999995923052653612E+00
    0.99999965606113949690E+00
    0.10000002299834620523E+01
    0.99999997796922435178E+00
    0.99999850758360886438E+00
    0.99999987386098132536E+00
    0.99999961756356714471E+00
    0.99999982970067757826E+00
    0.10000002468871811434E+01
    0.99999960992362291190E+00
    0.99999970270535210037E+00
    0.99999988071647205601E+00
    0.99999831527658744612E+00
    0.99999990505545499619E+00
    0.99999933405583052437E+00
    0.99999993183648561157E+00
    0.99999994449432982879E+00
    0.10000002194403163625E+01
    0.99999978343587303531E+00
    0.10000003353304205422E+01
    0.99999965201386209479E+00
    0.99999983303952966196E+00
    0.10000003520076785613E+01
    0.99999965992955464067E+00
    0.99999979729057986155E+00
    0.10000003277223110665E+01
    0.99999961752150945404E+00
    0.99999982602315862223E+00
    0.10000003643252994845E+01
    0.99999972979082796254E+00
    0.10000005390205177758E+01
    0.10000005593915155533E+01
    0.99999975644920446882E+00
    0.10000002444628790510E+01
    0.99999963257794599603E+00
    0.99999976829446923787E+00
    0.99999991242583963214E+00
    0.99999821810161249047E+00
    0.99999993314270740896E+00
    0.99999925791667365615E+00
    0.99999985008292791022E+00
    0.99999852080694717760E+00
    0.99999997747092506106E+00
    0.99999968915696246796E+00
    0.10000002374922947190E+01
    0.99999998306186788088E+00
    0.99999975664392837249E+00
    0.10000002444511282285E+01
    0.99999963260085100725E+00
    0.99999976829932246680E+00
    0.99999991238160290674E+00
    0.99999821809663158589E+00
    0.99999993312922674793E+00
    0.99999925809347500749E+00
    0.99999985026470417093E+00
    0.99999852133100197715E+00
    0.99999997791621164644E+00
    0.99999968973733344146E+00
    0.10000002374933820715E+01
    0.99999998304761972268E+00
    0.99999979171937669609E+00
    0.10000003400189623193E+01
    0.99999965438186566580E+00
    0.99999983428280270203E+00
    0.10000003541102058247E+01
    0.99999966101983672750E+00
    0.99999979984706399705E+00
    0.10000003349906827488E+01
    0.99999963423751969671E+00
    0.99999985571165050935E+00
    0.10000003825105165944E+01
    0.99999974906286914766E+00
    0.10000005469636599198E+01
    0.10000005650994854278E+01
    0.99999979188629439797E+00
    0.10000003399132875170E+01
    0.99999965442186700137E+00
    0.99999983428918104433E+00
    0.10000003539244779471E+01
    0.99999966108430549117E+00
    0.99999979985757858625E+00
    0.10000003354768585151E+01
    0.99999963452919404805E+00
    0.99999985631947363451E+00
    0.10000003830638020119E+01
    0.99999974967323601582E+00
    0.10000005468123740471E+01
    0.10000005650263734669E+01
    0.99999850841146864511E+00
    0.99999987555665537098E+00
    0.99999961859098618344E+00
    0.99999983172590145575E+00
    0.10000002529997775724E+01
    0.99999962407665765607E+00
    0.99999971813295640555E+00
    0.99999989705632508219E+00
    0.99999833720608388710E+00
    0.99999991722090342261E+00
    0.99999933940252605513E+00
    0.99999993372181394946E+00
    0.99999994898145383448E+00
    0.10000002261014433458E+01
    0.99999978422084068175E+00
    0.10000003369065768588E+01
    0.99999965302145366053E+00
    0.99999983513462042950E+00
    0.10000003582314771489E+01
    0.99999967336933415218E+00
    0.99999979337239286448E+00
    0.10000003442828628852E+01
    0.99999964213784653388E+00
    0.99999984012837872527E+00
    0.10000003703509485753E+01
    0.99999973177439394068E+00
    0.10000005460685386094E+01
    0.10000005687241080299E+01
    0.99999850840642778849E+00
    0.99999987550926827673E+00
    0.99999961859365882333E+00
    0.99999983174467810265E+00
    0.10000002529742897384E+01
    0.99999962423117838561E+00
    0.99999971862869163619E+00
    0.99999989746140394153E+00
    0.99999833767470847068E+00
    0.99999991737814397652E+00
    0.99999933957098641191E+00
    0.99999993370525552816E+00
    0.99999994895895649716E+00
    0.10000002260891400763E+01
    0.99999978428492808380E+00
    0.10000003367153598166E+01
    0.99999965302583948557E+00
    0.99999983516952639651E+00
    0.10000003581072354208E+01
    0.99999967348798857181E+00
    0.99999979385516346575E+00
    0.10000003447639125298E+01
    0.99999964258928120131E+00
    0.99999984036573730251E+00
    0.10000003708201614661E+01
    0.99999973178093493065E+00
    0.10000005460452614514E+01
    0.10000005686145394534E+01
    0.99999979262684957071E+00
    0.10000003415901923542E+01
    0.99999965541170920957E+00
    0.99999983639659062451E+00
    0.10000003602943601244E+01
    0.99999967448977078455E+00
    0.99999979587974074935E+00
    0.10000003515786082264E+01
    0.99999965472344365391E+00
    0.99999986971964027749E+00
    0.10000003889864064188E+01
    0.99999975115498462852E+00
    0.10000005516876082634E+01
    0.10000005720788345265E+01
    0.99999979277898887187E+00
    0.10000003412855611451E+01
    0.99999965547933811205E+00
    0.99999983641282996771E+00
    0.10000003598821227691E+01
    0.99999967462596117684E+00
    0.99999979588807363928E+00
    0.10000003525544127747E+01
    0.99999965511563038145E+00
    0.99999987045780225348E+00
    0.10000003898360529941E+01
    0.99999975176180400105E+00
    0.10000005512943810349E+01
    0.10000005718539841659E+01
    0.99999979276219097546E+00
    0.10000003411736539949E+01
    0.99999965542521596085E+00
    0.99999983645941925570E+00
    0.10000003599722862013E+01
    0.99999967459429794925E+00
    0.99999979636010505324E+00
    0.10000003523652631898E+01
    0.99999965535827495255E+00
    0.99999987006463542105E+00
    0.10000003899456753054E+01
    0.99999975115829364825E+00
    0.10000005514501102422E+01
    0.10000005716649396081E+01
    0.99999979300731156595E+00
    0.10000003404694928211E+01
    0.99999965459123829614E+00
    0.99999983557494620534E+00
    0.10000003591612669496E+01
    0.99999967482346929781E+00
    0.99999979636922931014E+00
    0.10000003540711632777E+01
    0.99999965595104156613E+00
    0.99999987100321807709E+00
    0.10000003915252890785E+01
    0.99999975176537303501E+00
    0.10000005507132947447E+01
    0.10000005710971158202E+01
    0.99999975659757212032E+00
    0.10000002444029265636E+01
    0.99999963261075386356E+00
    0.99999976829083692120E+00
    0.99999991235310115023E+00
    0.99999821809386701954E+00
    0.99999993312469515061E+00
    0.99999925821707169593E+00
    0.99999985026912163733E+00
    0.99999852137536815455E+00
    0.99999997800182194307E+00
    0.99999968972110098164E+00
    0.10000002374031979890E+01
    0.99999998303841663994E+00
    0.99999975651966843682E+00
    0.10000002443937705543E+01
    0.99999963262003710440E+00
    0.99999976827446213079E+00
    0.99999991231272511438E+00
    0.99999821814473044412E+00
    0.99999993315003732341E+00
    0.99999925831765568152E+00
    0.99999985028149485089E+00
    0.99999852136936051572E+00
    0.99999997791634642752E+00
    0.99999968971569119791E+00
    0.10000002373163383584E+01
    0.99999998309243043337E+00
    0.99999979177675346609E+00
    0.10000003397562673424E+01
    0.99999965445468375069E+00
    0.99999983427687255677E+00
    0.10000003537094268591E+01
    0.99999966119881167348E+00
    0.99999979985225884160E+00
    0.10000003360484968074E+01
    0.99999963459796958887E+00
    0.99999985645942768286E+00
    0.10000003831719614933E+01
    0.99999974966795424081E+00
    0.10000005465126784454E+01
    0.10000005649738257230E+01
    0.99999979172033481856E+00
    0.10000003395324059685E+01
    0.99999965448763927789E+00
    0.99999983424997440640E+00
    0.10000003535350792117E+01
    0.99999966134905271531E+00
    0.99999979992864695966E+00
    0.10000003365673029165E+01
    0.99999963462201180153E+00
    0.99999985660066037507E+00
    0.10000003830168842089E+01
    0.99999974965977334040E+00
    0.10000005462075440832E+01
    0.10000005650265089141E+01
    0.99999975649850536552E+00
    0.10000002443460125345E+01
    0.99999963262714763879E+00
    0.99999976825378367185E+00
    0.99999991230565932199E+00
    0.99999821821049328374E+00
    0.99999993320279589870E+00
    0.99999925837019376651E+00
    0.99999985030097071625E+00
    0.99999852130147126594E+00
    0.99999997767736570342E+00
    0.99999968971093444736E+00
    0.10000002372560232722E+01
    0.99999998320504102090E+00
    0.99999975648502648085E+00
    0.10000002443327224988E+01
    0.99999963262983071477E+00
    0.99999976823297176409E+00
    0.99999991233228702203E+00
    0.99999821827756052439E+00
    0.99999993326904412783E+00
    0.99999925836764891329E+00
    0.99999985031158844517E+00
    0.99999852119959720120E+00
    0.99999997733215617579E+00
    0.99999968970766150989E+00
    0.10000002372354956925E+01
    0.99999998335301987229E+00
    0.99999979167074881659E+00
    0.10000003393705636512E+01
    0.99999965451135330863E+00
    0.99999983421606575273E+00
    0.10000003534471875177E+01
    0.99999966149976760033E+00
    0.99999980003797017680E+00
    0.10000003369446217594E+01
    0.99999963458963558871E+00
    0.99999985670044266861E+00
    0.10000003826036858445E+01
    0.99999974965178572983E+00
    0.10000005459792637996E+01
    0.10000005651806531670E+01
    0.99999979163975571961E+00
    0.10000003393045282518E+01
    0.99999965452094652374E+00
    0.99999983418224624998E+00
    0.10000003534579589015E+01
    0.99999966161868514281E+00
    0.99999980014709433096E+00
    0.10000003371105832262E+01
    0.99999963450826767630E+00
    0.99999985673528113406E+00
    0.10000003820389942177E+01
    0.99999974964643945086E+00
    0.10000005458762557531E+01
    0.10000005653963313090E+01
    0.99999979256312221398E+00
    0.10000003409493136708E+01
    0.99999965557944370254E+00
    0.99999983640618039793E+00
    0.10000003593832884619E+01
    0.99999967488619945222E+00
    0.99999979594798338312E+00
    0.10000003537950339361E+01
    0.99999965528877921006E+00
    0.99999987078394969586E+00
    0.10000003901435843279E+01
    0.99999975175328170707E+00
    0.10000005506215863260E+01
    0.10000005716952014012E+01
    0.99999979243339309765E+00
    0.10000003404334505408E+01
    0.99999965553307224031E+00
    0.99999983632396083344E+00
    0.10000003589662589398E+01
    0.99999967522475896597E+00
    0.99999979614443879061E+00
    0.10000003550165714739E+01
    0.99999965537820534323E+00
    0.99999987113171062703E+00
    0.10000003898707139349E+01
    0.99999975174887711926E+00
    0.10000005499042421420E+01
    0.10000005717719406828E+01
    0.99999946083949431408E+00
    0.99999990639944535964E+00
    0.99999257529872964678E+00
    0.99999906458481335747E+00
    0.10000003182507954946E+01
    0.99999967364890196553E+00
    0.99999979640550229476E+00
    0.10000003566947213152E+01
    0.99999965640043586568E+00
    0.99999987169635695672E+00
    0.10000003910805062013E+01
    0.99999973773441153124E+00
    0.10000005279164336791E+01
    0.10000005667814455546E+01
    0.99993861391941074590E+00
    0.99999268586043177365E+00
    0.99993954143197150142E+00
    0.99999502446844801273E+00
    0.10000000815838183676E+01
    0.99999966230673165146E+00
    0.99999979592823717844E+00
    0.10000003558712529106E+01
    0.99999965622061370851E+00
    0.99999986587353018042E+00
    0.10000001886923359784E+01
    0.99999634501126977160E+00
    0.10000001150882791290E+01
    0.10000005048483577852E+01
    0.99999979160389829147E+00
    0.10000003397651866521E+01
    0.99999965428820658531E+00
    0.99999983592444152691E+00
    0.10000003587111467862E+01
    0.99999967553341373439E+00
    0.99999979637702873791E+00
    0.10000003559021821697E+01
    0.99999965534528201250E+00
    0.99999987137911439117E+00
    0.10000003890001696316E+01
    0.99999975164591436982E+00
    0.10000005493406471935E+01
    0.10000005720466496051E+01
    0.99999978824099389207E+00
    0.10000003387744669237E+01
    0.99999965187748995898E+00
    0.99999983537504155695E+00
    0.10000003586394130561E+01
    0.99999967575065307201E+00
    0.99999979658544402294E+00
    0.10000003562801855761E+01
    0.99999965521065559138E+00
    0.99999987146301194674E+00
    0.10000003878235563803E+01
    0.99999975115910855195E+00
    0.10000005489917549450E+01
    0.10000005723965466053E+01
    0.99992461559096235124E+00
    0.99999132507411747639E+00
    0.99993655927691937890E+00
    0.99999416039987509830E+00
    0.99999995162701516005E+00
    0.99999963622450127598E+00
    0.99999979309736763966E+00
    0.10000003446406966479E+01
    0.99999965342932928269E+00
    0.99999985713825134681E+00
    0.10000001068405255378E+01
    0.99999510288873305619E+00
    0.99999995390320839395E+00
    0.10000004381498681649E+01
    0.99991750883003327477E+00
    0.99998902079938001286E+00
    0.99993060096515984370E+00
    0.99999273566144608605E+00
    0.99999967352768093232E+00
    0.99999959879807798213E+00
    0.99999978526887345343E+00
    0.10000003419822967032E+01
    0.99999964108643313310E+00
    0.99999981843629270895E+00
    0.99999988434278552774E+00
    0.99999382710570983157E+00
    0.99999955746830315739E+00
    0.10000002817328179638E+01
    0.99999850840369730598E+00
    0.99999987548019730887E+00
    0.99999961858432551143E+00
    0.99999983175383122536E+00
    0.10000002529254408135E+01
    0.99999962418376320272E+00
    0.99999971861077407986E+00
    0.99999989754701201772E+00
    0.99999833772492863204E+00
    0.99999991738248417139E+00
    0.99999933969364029895E+00
    0.99999993370029616191E+00
    0.99999994894928878608E+00
    0.10000002259982847530E+01
    0.99999978439933545626E+00
    0.10000003365002276823E+01
    0.99999965301240245630E+00
    0.99999983520160129480E+00
    0.10000003579498804029E+01
    0.99999967337755857333E+00
    0.99999979384875203881E+00
    0.10000003448720173882E+01
    0.99999964273552854888E+00
    0.99999984043416245694E+00
    0.10000003713912974934E+01
    0.99999973177517886835E+00
    0.10000005459923939632E+01
    0.10000005683142529911E+01
    0.99999850845435855895E+00
    0.99999987543994151018E+00
    0.99999961856798424975E+00
    0.99999983176326590062E+00
    0.10000002529161235998E+01
    0.99999962410573572935E+00
    0.99999971860529113243E+00
    0.99999989746153961079E+00
    0.99999833771882018496E+00
    0.99999991739476645769E+00
    0.99999933979415400742E+00
    0.99999993372563367178E+00
    0.99999994900342403792E+00
    0.10000002259118567771E+01
    0.99999978454958748930E+00
    0.10000003363259621914E+01
    0.99999965298554782667E+00
    0.99999983523451929646E+00
    0.10000003577256577625E+01
    0.99999967332073325110E+00
    0.99999979383988124582E+00
    0.10000003447172043369E+01
    0.99999964287678311248E+00
    0.99999984045823742118E+00
    0.10000003719100507560E+01
    0.99999973185164781064E+00
    0.10000005460451946160E+01
    0.10000005680090742199E+01
    0.99999979302221297939E+00
    0.10000003406743629419E+01
    0.99999965541755597709E+00
    0.99999983655760571466E+00
    0.10000003596343218781E+01
    0.99999967437615033816E+00
    0.99999979635022995250E+00
    0.10000003526729144276E+01
    0.99999965569042892355E+00
    0.99999987023742820114E+00
    0.10000003911857957561E+01
    0.99999975121770234843E+00
    0.10000005512906113836E+01
    0.10000005709917210162E+01
    0.99999979182207099360E+00
    0.10000002995279451135E+01
    0.99999888370161260642E+00
    0.99999275589640101991E+00
    0.99999992506409740578E+00
    0.99999934263889156405E+00
    0.99999978233226005653E+00
    0.10000003536213750710E+01
    0.99999965664913736951E+00
    0.99999987145116009390E+00
    0.10000003941442505706E+01
    0.99999975179825573157E+00
    0.10000005463854264587E+01
    0.10000005482864420259E+01
    0.99999979336070243807E+00
    0.10000003402572976707E+01
    0.99999965533504675541E+00
    0.99999983650952406489E+00
    0.10000003591177755169E+01
    0.99999967424428859442E+00
    0.99999979634495606007E+00
    0.10000003523997125221E+01
    0.99999965603812779324E+00
    0.99999987032699211298E+00
    0.10000003924076976691E+01
    0.99999975141405994528E+00
    0.10000005513674068425E+01
    0.10000005702738568036E+01
    0.99999978053623050922E+00
    0.10000000592151048195E+01
    0.99999481281117541531E+00
    0.99993972554436061362E+00
    0.99999270148103169831E+00
    0.99993848144047481341E+00
    0.99999639262621375924E+00
    0.10000001513238547801E+01
    0.99999965081308861414E+00
    0.99999987126706835205E+00
    0.10000003933546632862E+01
    0.99999975132193230642E+00
    0.10000004837859435280E+01
    0.10000001345642317574E+01
    0.99999850852016602953E+00
    0.99999987543274371227E+00
    0.99999961854749486179E+00
    0.99999983177012574664E+00
    0.10000002528683382685E+01
    0.99999962408462972352E+00
    0.99999971860065473006E+00
    0.99999989722254800650E+00
    0.99999833765093648630E+00
    0.99999991741416915936E+00
    0.99999933984674382881E+00
    0.99999993377840568076E+00
    0.99999994911599121572E+00
    0.10000002258514690823E+01
    0.99999978470033268341E+00
    0.10000003362379867866E+01
    0.99999965295136006294E+00
    0.99999983525825941744E+00
    0.10000003575639409004E+01
    0.99999967327113314930E+00
    0.99999979383188575266E+00
    0.10000003443038389950E+01
    0.99999964297673449298E+00
    0.99999984042580847277E+00
    0.10000003722874055700E+01
    0.99999973196093883132E+00
    0.10000005461992085287E+01
    0.10000005677806198534E+01
    0.99999850858751371252E+00
    0.99999987545980617565E+00
    0.99999961852699581488E+00
    0.99999983177299900383E+00
    0.10000002528552669467E+01
    0.99999962407123266228E+00
    0.99999971859734781976E+00
    0.99999989687747248279E+00
    0.99999833754903211247E+00
    0.99999991742472704725E+00
    0.99999933984439592916E+00
    0.99999993384456442591E+00
    0.99999994926384416782E+00
    0.10000002258307980618E+01
    0.99999978481924500784E+00
    0.10000003362492608794E+01
    0.99999965291833758929E+00
    0.99999983526845737103E+00
    0.10000003574980258492E+01
    0.99999967324009675362E+00
    0.99999979382644876846E+00
    0.10000003437392708250E+01
    0.99999964301160626512E+00
    0.99999984034464495242E+00
    0.10000003724534816119E+01
    0.99999973206987380347E+00
    0.10000005464150092394E+01
    0.10000005676781151820E+01
    0.99999979366942337577E+00
    0.10000003400019450428E+01
    0.99999965494010978340E+00
    0.99999983519177160218E+00
    0.10000003584534562506E+01
    0.99999967341604989457E+00
    0.99999979624174051285E+00
    0.10000003515294122458E+01
    0.99999965628556930497E+00
    0.99999987029409520556E+00
    0.10000003932930483508E+01
    0.99999975164700094510E+00
    0.10000005516421401897E+01
    0.10000005697102221092E+01
    0.99999975291280307488E+00
    0.99999994336961284258E+00
    0.99999393832055827325E+00
    0.99993672930894217377E+00
    0.99999132613792174329E+00
    0.99992447698762920716E+00
    0.99999514029642389001E+00
    0.10000000699754298950E+01
    0.99999964249167372365E+00
    0.99999986851027533596E+00
    0.10000003821310170515E+01
    0.99999974630513643881E+00