# vtk DataFile Version 3.0
LAPLACIEN  2D
ASCII
DATASET UNSTRUCTURED_GRID
 POINTS        1857  float
   3.1250000000000000E-002  0.93750000000000000        0.0000000000000000     
   6.2500000000000000E-002  0.93750000000000000        0.0000000000000000     
   6.2500000000000000E-002  0.96875000000000000        0.0000000000000000     
   1.8749999999999999E-002  0.95625000000000004        0.0000000000000000     
   4.0625000000000001E-002  0.95937499999999998        0.0000000000000000     
   4.3749999999999997E-002  0.98124999999999996        0.0000000000000000     
   2.1874999999999999E-002  0.97812500000000002        0.0000000000000000     
   9.3750000000000000E-002  0.93750000000000000        0.0000000000000000     
  0.12500000000000000       0.93750000000000000        0.0000000000000000     
  0.12500000000000000       0.96875000000000000        0.0000000000000000     
   8.1250000000000003E-002  0.95625000000000004        0.0000000000000000     
  0.10312499999999999       0.95937499999999998        0.0000000000000000     
  0.10625000000000000       0.98124999999999996        0.0000000000000000     
   8.4375000000000006E-002  0.97812500000000002        0.0000000000000000     
   3.1250000000000000E-002  0.87500000000000000        0.0000000000000000     
   6.2500000000000000E-002  0.87500000000000000        0.0000000000000000     
   6.2500000000000000E-002  0.90625000000000000        0.0000000000000000     
   1.8749999999999999E-002  0.89375000000000004        0.0000000000000000     
   4.0625000000000001E-002  0.89687499999999998        0.0000000000000000     
   4.3749999999999997E-002  0.91874999999999996        0.0000000000000000     
   2.1874999999999999E-002  0.91562500000000002        0.0000000000000000     
   9.3750000000000000E-002  0.87500000000000000        0.0000000000000000     
  0.12500000000000000       0.87500000000000000        0.0000000000000000     
  0.12500000000000000       0.90625000000000000        0.0000000000000000     
   8.1250000000000003E-002  0.89375000000000004        0.0000000000000000     
  0.10312499999999999       0.89687499999999998        0.0000000000000000     
  0.10625000000000000       0.91874999999999996        0.0000000000000000     
   8.4375000000000006E-002  0.91562500000000002        0.0000000000000000     
  0.15625000000000000       0.93750000000000000        0.0000000000000000     
  0.18750000000000000       0.93750000000000000        0.0000000000000000     
  0.18750000000000000       0.96875000000000000        0.0000000000000000     
  0.14374999999999999       0.95625000000000004        0.0000000000000000     
  0.16562499999999999       0.95937499999999998        0.0000000000000000     
  0.16875000000000001       0.98124999999999996        0.0000000000000000     
  0.14687500000000001       0.97812500000000002        0.0000000000000000     
  0.21875000000000000       0.93750000000000000        0.0000000000000000     
  0.25000000000000000       0.93750000000000000        0.0000000000000000     
  0.25000000000000000       0.96875000000000000        0.0000000000000000     
  0.20624999999999999       0.95625000000000004        0.0000000000000000     
  0.22812499999999999       0.95937499999999998        0.0000000000000000     
  0.23125000000000001       0.98124999999999996        0.0000000000000000     
  0.20937500000000001       0.97812500000000002        0.0000000000000000     
  0.15625000000000000       0.87500000000000000        0.0000000000000000     
  0.18750000000000000       0.87500000000000000        0.0000000000000000     
  0.18750000000000000       0.90625000000000000        0.0000000000000000     
  0.14374999999999999       0.89375000000000004        0.0000000000000000     
  0.16562499999999999       0.89687499999999998        0.0000000000000000     
  0.16875000000000001       0.91874999999999996        0.0000000000000000     
  0.14687500000000001       0.91562500000000002        0.0000000000000000     
  0.21875000000000000       0.87500000000000000        0.0000000000000000     
  0.25000000000000000       0.87500000000000000        0.0000000000000000     
  0.25000000000000000       0.90625000000000000        0.0000000000000000     
  0.20624999999999999       0.89375000000000004        0.0000000000000000     
  0.22812499999999999       0.89687499999999998        0.0000000000000000     
  0.23125000000000001       0.91874999999999996        0.0000000000000000     
  0.20937500000000001       0.91562500000000002        0.0000000000000000     
   3.1250000000000000E-002  0.81250000000000000        0.0000000000000000     
   6.2500000000000000E-002  0.81250000000000000        0.0000000000000000     
   6.2500000000000000E-002  0.84375000000000000        0.0000000000000000     
   1.8749999999999999E-002  0.83125000000000004        0.0000000000000000     
   4.0625000000000001E-002  0.83437499999999998        0.0000000000000000     
   4.3749999999999997E-002  0.85624999999999996        0.0000000000000000     
   2.1874999999999999E-002  0.85312500000000002        0.0000000000000000     
   9.3750000000000000E-002  0.81250000000000000        0.0000000000000000     
  0.12500000000000000       0.81250000000000000        0.0000000000000000     
  0.12500000000000000       0.84375000000000000        0.0000000000000000     
   8.1250000000000003E-002  0.83125000000000004        0.0000000000000000     
  0.10312499999999999       0.83437499999999998        0.0000000000000000     
  0.10625000000000000       0.85624999999999996        0.0000000000000000     
   8.4375000000000006E-002  0.85312500000000002        0.0000000000000000     
   3.1250000000000000E-002  0.75000000000000000        0.0000000000000000     
   6.2500000000000000E-002  0.75000000000000000        0.0000000000000000     
   6.2500000000000000E-002  0.78125000000000000        0.0000000000000000     
   1.8749999999999999E-002  0.76875000000000004        0.0000000000000000     
   4.0625000000000001E-002  0.77187499999999998        0.0000000000000000     
   4.3749999999999997E-002  0.79374999999999996        0.0000000000000000     
   2.1874999999999999E-002  0.79062500000000002        0.0000000000000000     
   9.3750000000000000E-002  0.75000000000000000        0.0000000000000000     
  0.12500000000000000       0.75000000000000000        0.0000000000000000     
  0.12500000000000000       0.78125000000000000        0.0000000000000000     
   8.1250000000000003E-002  0.76875000000000004        0.0000000000000000     
  0.10312499999999999       0.77187499999999998        0.0000000000000000     
  0.10625000000000000       0.79374999999999996        0.0000000000000000     
   8.4375000000000006E-002  0.79062500000000002        0.0000000000000000     
  0.15625000000000000       0.81250000000000000        0.0000000000000000     
  0.18750000000000000       0.81250000000000000        0.0000000000000000     
  0.18750000000000000       0.84375000000000000        0.0000000000000000     
  0.14374999999999999       0.83125000000000004        0.0000000000000000     
  0.16562499999999999       0.83437499999999998        0.0000000000000000     
  0.16875000000000001       0.85624999999999996        0.0000000000000000     
  0.14687500000000001       0.85312500000000002        0.0000000000000000     
  0.21875000000000000       0.81250000000000000        0.0000000000000000     
  0.25000000000000000       0.81250000000000000        0.0000000000000000     
  0.25000000000000000       0.84375000000000000        0.0000000000000000     
  0.20624999999999999       0.83125000000000004        0.0000000000000000     
  0.22812499999999999       0.83437499999999998        0.0000000000000000     
  0.23125000000000001       0.85624999999999996        0.0000000000000000     
  0.20937500000000001       0.85312500000000002        0.0000000000000000     
  0.15625000000000000       0.75000000000000000        0.0000000000000000     
  0.18750000000000000       0.75000000000000000        0.0000000000000000     
  0.18750000000000000       0.78125000000000000        0.0000000000000000     
  0.14374999999999999       0.76875000000000004        0.0000000000000000     
  0.16562499999999999       0.77187499999999998        0.0000000000000000     
  0.16875000000000001       0.79374999999999996        0.0000000000000000     
  0.14687500000000001       0.79062500000000002        0.0000000000000000     
  0.21875000000000000       0.75000000000000000        0.0000000000000000     
  0.25000000000000000       0.75000000000000000        0.0000000000000000     
  0.25000000000000000       0.78125000000000000        0.0000000000000000     
  0.20624999999999999       0.76875000000000004        0.0000000000000000     
  0.22812499999999999       0.77187499999999998        0.0000000000000000     
  0.23125000000000001       0.79374999999999996        0.0000000000000000     
  0.20937500000000001       0.79062500000000002        0.0000000000000000     
  0.28125000000000000       0.93750000000000000        0.0000000000000000     
  0.31250000000000000       0.93750000000000000        0.0000000000000000     
  0.31250000000000000       0.96875000000000000        0.0000000000000000     
  0.26874999999999999       0.95625000000000004        0.0000000000000000     
  0.29062500000000002       0.95937499999999998        0.0000000000000000     
  0.29375000000000001       0.98124999999999996        0.0000000000000000     
  0.27187499999999998       0.97812500000000002        0.0000000000000000     
  0.34375000000000000       0.93750000000000000        0.0000000000000000     
  0.37500000000000000       0.93750000000000000        0.0000000000000000     
  0.37500000000000000       0.96875000000000000        0.0000000000000000     
  0.33124999999999999       0.95625000000000004        0.0000000000000000     
  0.35312500000000002       0.95937499999999998        0.0000000000000000     
  0.35625000000000001       0.98124999999999996        0.0000000000000000     
[...]
 CELL_DATA        3584
 SCALARS Cells_density float
 LOOKUP_TABLE default
    0.99999656159046323989E+00
    0.99999874037178770880E+00
    0.99999869332371116304E+00
    0.99999883401217848355E+00
    0.99999874749859118950E+00
    0.99999618640961518423E+00
    0.99999889525653262723E+00
    0.99999792338278259418E+00
    0.99999899725788465865E+00
    0.99999927861612658564E+00
    0.99999816755243475797E+00
    0.99999898323405544964E+00
    0.10000002003920123173E+01
    0.10000001706928112188E+01
    0.99999905707152081380E+00
    0.10000001763647810016E+01
    0.99999904727560007256E+00
    0.99999901986253525443E+00
    0.99999898624656868851E+00
    0.99999631780901265810E+00
    0.99999909642848272551E+00
    0.99999814783947038599E+00
    0.99999887569338397064E+00
    0.99999661417521878981E+00
    0.99999910262667768279E+00
    0.99999879678157543861E+00
    0.10000012080477258536E+01
    0.10000006070496925137E+01
    0.99999667720797358328E+00
    0.99999895487073220401E+00
    0.99999885208934946590E+00
    0.99999926324625598717E+00
    0.10000002552442288639E+01
    0.99999912759188946954E+00
    0.99999892981368510014E+00
    0.99999900389578733062E+00
    0.99999644626370698397E+00
    0.99999899262751823503E+00
    0.99999828158807690937E+00
    0.99999915022886354254E+00
    0.10000005767207493790E+01
    0.10000012046138417876E+01
    0.99999921294968352470E+00
    0.10000001762623278445E+01
    0.99999908527491732091E+00
    0.99999931421044419011E+00
    0.10000002123395153042E+01
    0.99999908507112578171E+00
    0.99999925148247259532E+00
    0.10000001569748364627E+01
    0.99999899657447277601E+00
    0.99999937909516589674E+00
    0.10000002501809714950E+01
    0.99999916703517199856E+00
    0.10000018637219993956E+01
    0.10000018802673535934E+01
    0.99999912709801319632E+00
    0.10000002832695171762E+01
    0.99999907736256021806E+00
    0.99999904296045083463E+00
    0.99999907385649511316E+00
    0.99999633885122940491E+00
    0.99999912624951525775E+00
    0.99999825280408627393E+00
    0.99999894426602842223E+00
    0.99999670998427858670E+00
    0.99999924634908843313E+00
    0.99999892286561187227E+00
    0.10000015439552607521E+01
    0.10000009345622271617E+01
    0.99999913569494680576E+00
    0.10000002855755347753E+01
    0.99999907865335746493E+00
    0.99999904382799686964E+00
    0.99999907516761843418E+00
    0.99999633961723910502E+00
    0.99999912741836438634E+00
    0.99999825702632960667E+00
    0.99999894962519630948E+00
    0.99999672033390940573E+00
    0.99999925490726626620E+00
    0.99999893457729904789E+00
    0.10000015468438718802E+01
    0.10000009371114342294E+01
    0.99999925249139354211E+00
    0.10000002093266326941E+01
    0.99999910719456019947E+00
    0.99999932692478998852E+00
    0.10000002324151175959E+01
    0.99999910229239008519E+00
    0.99999927534059329659E+00
    0.10000001955671391496E+01
    0.99999903213674723457E+00
    0.99999930899311595400E+00
    0.10000002859228618313E+01
    0.99999922419192022183E+00
    0.10000019001121200901E+01
    0.10000019137419893234E+01
    0.99999925198239936197E+00
    0.10000002086871819795E+01
    0.99999910560777716118E+00
    0.99999932567341209833E+00
    0.10000002317919090000E+01
    0.99999910357534416150E+00
    0.99999927655613984889E+00
    0.10000002036535056149E+01
    0.99999909214376636601E+00
    0.99999937320883081071E+00
    0.10000002950570368032E+01
    0.99999922910865368664E+00
    0.10000018995904382813E+01
    0.10000019142929468252E+01
    0.99999668776021277683E+00
    0.99999897066327070316E+00
    0.99999886487321587580E+00
    0.99999928245696589890E+00
    0.10000002873090023670E+01
    0.99999917902110957435E+00
    0.99999894475242323555E+00
    0.99999905147919865289E+00
    0.99999652344027267770E+00
    0.99999904552238427780E+00
    0.99999831318236331867E+00
    0.99999916693651769162E+00
    0.10000006027889802862E+01
    0.10000012359989087773E+01
    0.99999922628003123926E+00
    0.10000001991751314989E+01
    0.99999910026791150042E+00
    0.99999933329391965664E+00
    0.10000002521172934866E+01
    0.99999912931677392702E+00
    0.99999922360376281016E+00
    0.10000002139879029528E+01
    0.99999910089604049368E+00
    0.99999944674654761556E+00
    0.10000002959919487289E+01
    0.99999918795783615533E+00
    0.10000019167769569339E+01
    0.10000019382562645998E+01
    0.99999668831691512771E+00
    0.99999897126634940125E+00
    0.99999886552172412291E+00
    0.99999928355671829916E+00
    0.10000002891688259954E+01
    0.99999918402196796841E+00
    0.99999895339478994671E+00
    0.99999905848703751765E+00
    0.99999653094572504841E+00
    0.99999904995449651057E+00
    0.99999831652685644556E+00
    0.99999916779781272691E+00
    0.10000006038954163401E+01
    0.10000012374548614691E+01
    0.99999922715559053099E+00
    0.10000001984175781455E+01
    0.99999909892565552738E+00
    0.99999933159611542610E+00
    0.10000002529975575705E+01
    0.99999913403247209231E+00
    0.99999923351303166008E+00
    0.10000002227597546423E+01
    0.99999910997262009271E+00
    0.99999945245034105312E+00
    0.10000003023404813174E+01
    0.99999918906742224500E+00
    0.10000019172238412413E+01
    0.10000019377695794631E+01
    0.99999925966146741008E+00
    0.10000002246412347251E+01
    0.99999911680034148098E+00
    0.99999934302793491714E+00
    0.10000002667458964822E+01
    0.99999914292374125768E+00
    0.99999924575207288502E+00
    0.10000002485260597318E+01
    0.99999912239524380020E+00
    0.99999937114227122059E+00
    0.10000003282791551928E+01
    0.99999924061754186244E+00
    0.10000019312186279041E+01
    0.10000019497593726214E+01
    0.99999924124395644931E+00
    0.10000002219797246017E+01
    0.99999896168503987770E+00
    0.99999925508540676855E+00
    0.10000002680031558899E+01
    0.99999911864495749647E+00
    0.99999924078022428553E+00
    0.10000002527148286191E+01
    0.99999912505805821361E+00
    0.99999938018681555629E+00
    0.10000003320629384795E+01
    0.99999923950452274113E+00
    0.10000019084935016789E+01
    0.10000019307568888127E+01
    0.99999924419394392583E+00
    0.10000002219571617612E+01
    0.99999897868876042040E+00
    0.99999920528685104504E+00
    0.10000002636943599033E+01
    0.99999910490186560974E+00
    0.99999925070403794525E+00
    0.10000002517623025611E+01
    0.99999912777573440881E+00
    0.99999937608531230815E+00
    0.10000003323146955392E+01
    0.99999923483310904082E+00
    0.10000019116566858379E+01
    0.10000019268842323950E+01
    0.99999750370485729345E+00
    0.99999736462807753412E+00
    0.99998878283044390081E+00
    0.99998903982951770075E+00
    0.99999736060438260132E+00
    0.99999732847382905021E+00
    0.99999881774097332254E+00
    0.10000000648443523321E+01
    0.99999906287188822240E+00
    0.99999929183784175279E+00
    0.10000001461882646048E+01
    0.99999883854879789702E+00
    0.10000010152652041295E+01
    0.10000010216703594246E+01
    0.99999913591293920767E+00
    0.10000002853181202411E+01
    0.99999907842671376113E+00
    0.99999904367338976474E+00
    0.99999907502164053774E+00
    0.99999633960691725054E+00
    0.99999912742764474061E+00
    0.99999825824503274507E+00
    0.99999894989165050152E+00
    0.99999672107370052299E+00
    0.99999925599476779947E+00
    0.99999893497022818156E+00
    0.10000015457055400070E+01
    0.10000009371510645284E+01
    0.99999913416053309856E+00
    0.10000002846395559253E+01
    0.99999907680269850552E+00
    0.99999904291380148358E+00
    0.99999907454604064494E+00
    0.99999633985644253986E+00
    0.99999912761378528803E+00
    0.99999825908659090157E+00
    0.99999894998412519609E+00
    0.99999672102202041835E+00
    0.99999925522658539290E+00
    0.99999893470736167522E+00
    0.10000015442899903295E+01
    0.10000009378744130206E+01
    0.99999923780174859722E+00
    0.10000001930077559997E+01
    0.99999906404230332058E+00
    0.99999930671589376541E+00
    0.10000002227775066643E+01
    0.99999910129763258659E+00
    0.99999927585713599409E+00
    0.10000002079811471933E+01
    0.99999909391386487822E+00
    0.99999937549635309342E+00
    0.10000002947458204172E+01
    0.99999922561143650412E+00
    0.10000018911275423417E+01
    0.10000019104645787582E+01
    0.99999912000790580624E+00
    0.10000001617302396451E+01
    0.99999885348783423833E+00
    0.99999924065026024600E+00
    0.10000002195476356270E+01
    0.99999908563540940154E+00
    0.99999927230947505130E+00
    0.10000002053195844454E+01
    0.99999909037182321825E+00
    0.99999937090234602977E+00
    0.10000002751261432010E+01
    0.99999919415386828714E+00
    0.10000018589266639335E+01
    0.10000018907144072600E+01
    0.99999912744048546909E+00
    0.10000002825009182139E+01
    0.99999907226267048532E+00
    0.99999904107466486280E+00
    0.99999907400269039126E+00
    0.99999634011698002034E+00
    0.99999912799236378991E+00
    0.99999825943754505619E+00
    0.99999895010800310402E+00
    0.99999672051081656132E+00
    0.99999925288152513581E+00
    0.99999893384585247791E+00
    0.10000015429231350339E+01
    0.10000009392574447098E+01
    0.99999912051745165620E+00
    0.10000002797756364359E+01
    0.99999906782363867652E+00
    0.99999903962764091769E+00
    0.99999907377358054905E+00
    0.99999634041903295856E+00
    0.99999912848165362078E+00
    0.99999825928113339479E+00
    0.99999895014793760417E+00
    0.99999671972418513466E+00
    0.99999924932164641067E+00
    0.99999893187180144416E+00
    0.10000015419387016102E+01
    0.10000009410985464253E+01
    0.99999848079971953574E+00
    0.99999991314077318894E+00
    0.99999801751811967510E+00
    0.99999891128430384857E+00
    0.10000001512265610515E+01
    0.99999905567516300664E+00
    0.99999926176407938350E+00
    0.10000001839752061805E+01
    0.99999902772119864114E+00
    0.99999929992249425581E+00
    0.10000002409419239680E+01
    0.99999905781156317452E+00
    0.10000017569130448258E+01
    0.10000018280813387506E+01
    0.99999716794122939234E+00
    0.99999939993652331438E+00
    0.99999713151280700263E+00
    0.99999857801882741093E+00
    0.10000000571584017894E+01
    0.99999903343957574631E+00
    0.99999925154783175785E+00
    0.10000001834664913325E+01
    0.99999901113567180033E+00
    0.99999926700559282899E+00
    0.10000001462245571293E+01
    0.99999868366117194984E+00
    0.10000016009941894435E+01
    0.10000017661040532246E+01
    0.99999795952101433461E+00
    0.99999896977722702029E+00
    0.99999512456454531240E+00
    0.99999668211093728498E+00
    0.99999952464357533266E+00
    0.99999878435563438472E+00
    0.99999915710216413789E+00
    0.10000002389057760510E+01
    0.99999909387672658578E+00
    0.99999933661569073706E+00
    0.10000003035203151036E+01
    0.99999898622139682391E+00
    0.10000015814816769488E+01
    0.10000016751430194084E+01
    0.99998274845756518481E+00
    0.99998679840666904184E+00
    0.99996481972580342212E+00
    0.99997885055306767743E+00
    0.99999372766974048421E+00
    0.99999657351001558503E+00
    0.99999848271212909978E+00
    0.99999933902121973528E+00
    0.99999880186332867904E+00
    0.99999883220419616414E+00
    0.99999834445383095627E+00
    0.99999472202951500410E+00
    0.99999768699406443861E+00
    0.99999875381979397293E+00
    0.99986554342492173220E+00
    0.99984070024908100471E+00
    0.99925438190170323693E+00
    0.99968231234369120397E+00
    0.99992503972926094491E+00
    0.99996760095062720008E+00
    0.99999027699500453448E+00
    0.99999096967266121183E+00
    0.99999654949792049496E+00
    0.99999621933476201541E+00
    0.99998694497107964985E+00
    0.99997454675420505144E+00
    0.99996496271185009164E+00
    0.99997364938756261310E+00
    0.99669891475940175507E+00
    0.99848936153509693092E+00
    0.99573888302487212343E+00
    0.99824115158539372672E+00
    0.99947405858199078743E+00
    0.99978207646482097903E+00
    0.99992686972683009206E+00
    0.99990532578109403428E+00
    0.99996708215388763197E+00
    0.99995192027076162944E+00
    0.99978991707264708300E+00
    0.99939341009602888910E+00
    0.99961305996569083110E+00
    0.99973029809112179400E+00
    0.99990720862316040396E+00
    0.99993884922913667257E+00
    0.99986771192158963029E+00
    0.99992963514776356249E+00
    0.99997666656718442457E+00
    0.99999087704373812446E+00
    0.99999644410958599128E+00
    0.99999557639646041718E+00
    0.99999729535405668113E+00
    0.99999605248446943317E+00
    0.99998767979615621471E+00
    0.99997045153395403005E+00
    0.99998163568632991716E+00
    0.99998764719058053085E+00
    0.99976060124250909489E+00
    0.99986916760082122924E+00
    0.99976522154967994993E+00
    0.99988804911107365125E+00
    0.99996069291160627479E+00
    0.99998662645228586499E+00
    0.99999441684163914434E+00
    0.99999038006904938936E+00
    0.99999449180134680759E+00
    0.99999003325493052152E+00
    0.99996655772814546648E+00
    0.99991603900984893372E+00
    0.99995752043934094111E+00
    0.99997269028274660130E+00
    0.99201453555651075700E+00
    0.99553519661740075275E+00
    0.99042021579523509267E+00
    0.99510337938629411791E+00
    0.99823163186479513254E+00
    0.99929103654843753901E+00
    0.99972853294084740305E+00
    0.99957807463150327720E+00
    0.99982499847032280105E+00
    0.99972235838916900796E+00
    0.99901841169872285242E+00
    0.99776375186711896426E+00
    0.99848453591573904653E+00
    0.99888838043081673579E+00
    0.98409935702971862437E+00
    0.99121736756759337705E+00
    0.98462440675078977126E+00
    0.99236373983123482567E+00
    0.99700879052655366763E+00
    0.99890479971454593233E+00
    0.99952268782087116961E+00
    0.99910795730101087386E+00
    0.99954938081338529088E+00
    0.99920101809284833649E+00
    0.99746322784612684309E+00
    0.99429982742612521562E+00
    0.99673040703696547116E+00
    0.99770744052575333072E+00
    0.99999668829357635236E+00
    0.99999897107187818435E+00
    0.99999886535072923799E+00
    0.99999928330838561141E+00
    0.10000002888188213035E+01
    0.99999918382043306853E+00
    0.99999895364692992228E+00
    0.99999905948484657525E+00
    0.99999653160172141675E+00
    0.99999905017817813935E+00
    0.99999831769013414196E+00
    0.99999916778804953665E+00
    0.10000006038307969192E+01
    0.10000012362041286185E+01
    0.99999922525269502316E+00
    0.10000001895718688694E+01
    0.99999907445500602066E+00
    0.99999930945644566194E+00
    0.10000002373680780821E+01
    0.99999911668777563545E+00
    0.99999922993825618445E+00
    0.10000002222298391974E+01
    0.99999911084416459595E+00
    0.99999945279614033122E+00
    0.10000003064577764889E+01
    0.99999918836053414140E+00
    0.10000019133759354695E+01
    0.10000019292211463906E+01
    0.99999668854272938390E+00
    0.99999897059390496779E+00
    0.99999886454954722836E+00
    0.99999928164435247790E+00
    0.10000002881494827189E+01
    0.99999918242461593998E+00
    0.99999895338933797451E+00
    0.99999905871368000021E+00
    0.99999653154506262798E+00
    0.99999905026915925088E+00
    0.99999831853135701110E+00
    0.99999916797411314562E+00
    0.10000006045539193700E+01
    0.10000012347867435203E+01
    0.99999921237256383932E+00
    0.10000001785995320525E+01
    0.99999895494149437791E+00
    0.99999908112426061368E+00
    0.10000001974844798802E+01
    0.99999897388597869252E+00
    0.99999920139716835799E+00
    0.10000002040283821891E+01
    0.99999910783970291650E+00
    0.99999945079668639547E+00
    0.10000003041131639847E+01
    0.99999918465931958433E+00
    0.10000018892528586001E+01
    0.10000018927355804887E+01
    0.99999893575952469860E+00
    0.99999950861241193589E+00
    0.99999636817552606249E+00
    0.99999532171766003508E+00
    0.99999896434145130186E+00
    0.99999780193002085760E+00
    0.99999896326256598744E+00
    0.10000002165666883602E+01
    0.99999909383627527681E+00
    0.99999934196897721783E+00
    0.10000003204693779235E+01
    0.99999916030526914135E+00
    0.10000016533869606761E+01
    0.10000015796771681842E+01
    0.99996781263798473205E+00
    0.99992504653148828186E+00
    0.99968196830440669842E+00
    0.99925455495190251831E+00
    0.99984065611508377014E+00
    0.99986534776250213241E+00
    0.99997447995721611136E+00
    0.99998682657557358411E+00
    0.99999608829907116192E+00
    0.99999682377142562473E+00
    0.99999106215083766180E+00
    0.99999030975239378005E+00
    0.99997363078203049813E+00
    0.99996493989756873866E+00
    0.99999674880054911785E+00
    0.99999372185696167037E+00
    0.99997851931419634575E+00
    0.99996500017158140849E+00
    0.99998678589206813072E+00
    0.99998260014679662966E+00
    0.99999465740978954464E+00
    0.99999822997937726221E+00
    0.99999867000919717697E+00
    0.99999907190251979827E+00
    0.99999942570841859890E+00
    0.99999850559954650553E+00
    0.99999873351461654458E+00
    0.99999767290275831666E+00
    0.99978230610043550275E+00
    0.99947406998319532345E+00
    0.99824079578488855713E+00
    0.99573904274512037293E+00
    0.99848933169554487943E+00
    0.99669876469721052636E+00
    0.99939331014704768652E+00
    0.99978979447159077587E+00
    0.99995183831070988401E+00
    0.99996738798050177621E+00
    0.99990542745260013735E+00
    0.99992690233772552055E+00
    0.99973027966068062078E+00
    0.99961303473799834052E+00
    0.99999668880345227162E+00
    0.99999897005091831215E+00
    0.99999886269690085872E+00
    0.99999927628538631819E+00
    0.10000002857795280420E+01
    0.99999917841069030366E+00
    0.99999895234460944859E+00
    0.99999905634416919042E+00
    0.99999653103291574752E+00
    0.99999905039281344887E+00
    0.99999831888190138240E+00
    0.99999916835225011180E+00
    0.10000006059335075914E+01
    0.10000012333934864550E+01
    0.99999918175711310919E+00
    0.10000001270474365711E+01
    0.99999861924256339130E+00
    0.99999822799855053734E+00
    0.99999992976774887410E+00
    0.99999833404590166008E+00
    0.99999904201277656224E+00
    0.10000001696308460364E+01
    0.99999909175421852758E+00
    0.99999944167756193991E+00
    0.10000002832377887785E+01
    0.99999917252571912663E+00
    0.10000018169177684602E+01
    0.10000017791539117518E+01
    0.99999668910726402515E+00
    0.99999896982248348554E+00
    0.99999886121600245481E+00
    0.99999927118822451444E+00
    0.10000002825714033872E+01
    0.99999915261408112155E+00
    0.99999894995499205574E+00
    0.99999905279401468672E+00
    0.99999653024685586367E+00
    0.99999905043291026363E+00
    0.99999831872568001323E+00
    0.99999916884238715387E+00
    0.10000006077745369204E+01
    0.10000012324182181445E+01
    0.99999915799580274545E+00
    0.10000000388305758658E+01
    0.99999831527131888276E+00
    0.99999733797971246396E+00
    0.99999941666527947248E+00
    0.99999702607119267395E+00
    0.99999865383472485991E+00
    0.10000000645493658524E+01
    0.99999905766412611197E+00
    0.99999940868489123336E+00
    0.10000002808723043035E+01
    0.99999916028903546028E+00
    0.10000017510536254317E+01
    0.10000016183727673535E+01
    0.99999106231924150823E+00
    0.99997666494537262860E+00
    0.99992929764168525519E+00
    0.99986788664534875792E+00
    0.99993883481707401817E+00
    0.99990706504643667163E+00
    0.99997036861403632013E+00
    0.99998755901395464107E+00
    0.99999592917492052813E+00
    0.99999758384482428930E+00
    0.99999566870307887712E+00
    0.99999647067228003561E+00
    0.99998762724614465025E+00
    0.99998161719130418401E+00
    0.99929127322663124922E+00
    0.99823164555983656676E+00
    0.99510302067633726875E+00
    0.99042037078543809780E+00
    0.99553516708286182713E+00
    0.99201439078338993216E+00
    0.99776364186574240112E+00
    0.99901828987139795757E+00
    0.99972229783643384859E+00
    0.99982531846931999020E+00
    0.99957818161718448025E+00
    0.99972856551530653313E+00