# vtk DataFile Version 3.0
LAPLACIEN  2D
ASCII
DATASET UNSTRUCTURED_GRID
 POINTS        1857  float
   3.1250000000000000E-002  0.93750000000000000        0.0000000000000000     
   6.2500000000000000E-002  0.93750000000000000        0.0000000000000000     
   6.2500000000000000E-002  0.96875000000000000        0.0000000000000000     
   1.8749999999999999E-002  0.95625000000000004        0.0000000000000000     
   4.0625000000000001E-002  0.95937499999999998        0.0000000000000000     
   4.3749999999999997E-002  0.98124999999999996        0.0000000000000000     
   2.1874999999999999E-002  0.97812500000000002        0.0000000000000000     
   9.3750000000000000E-002  0.93750000000000000        0.0000000000000000     
  0.12500000000000000       0.93750000000000000        0.0000000000000000     
  0.12500000000000000       0.96875000000000000        0.0000000000000000     
   8.1250000000000003E-002  0.95625000000000004        0.0000000000000000     
  0.10312499999999999       0.95937499999999998        0.0000000000000000     
  0.10625000000000000       0.98124999999999996        0.0000000000000000     
   8.4375000000000006E-002  0.97812500000000002        0.0000000000000000     
   3.1250000000000000E-002  0.87500000000000000        0.0000000000000000     
   6.2500000000000000E-002  0.87500000000000000        0.0000000000000000     
   6.2500000000000000E-002  0.90625000000000000        0.0000000000000000     
   1.8749999999999999E-002  0.89375000000000004        0.0000000000000000     
   4.0625000000000001E-002  0.89687499999999998        0.0000000000000000     
   4.3749999999999997E-002  0.91874999999999996        0.0000000000000000     
   2.1874999999999999E-002  0.91562500000000002        0.0000000000000000     
   9.3750000000000000E-002  0.87500000000000000        0.0000000000000000     
  0.12500000000000000       0.87500000000000000        0.0000000000000000     
  0.12500000000000000       0.90625000000000000        0.0000000000000000     
   8.1250000000000003E-002  0.89375000000000004        0.0000000000000000     
  0.10312499999999999       0.89687499999999998        0.0000000000000000     
  0.10625000000000000       0.91874999999999996        0.0000000000000000     
   8.4375000000000006E-002  0.91562500000000002        0.0000000000000000     
  0.15625000000000000       0.93750000000000000        0.0000000000000000     
  0.18750000000000000       0.93750000000000000        0.0000000000000000     
  0.18750000000000000       0.96875000000000000        0.0000000000000000     
  0.14374999999999999       0.95625000000000004        0.0000000000000000     
  0.16562499999999999       0.95937499999999998        0.0000000000000000     
  0.16875000000000001       0.98124999999999996        0.0000000000000000     
  0.14687500000000001       0.97812500000000002        0.0000000000000000     
  0.21875000000000000       0.93750000000000000        0.0000000000000000     
  0.25000000000000000       0.93750000000000000        0.0000000000000000     
  0.25000000000000000       0.96875000000000000        0.0000000000000000     
  0.20624999999999999       0.95625000000000004        0.0000000000000000     
  0.22812499999999999       0.95937499999999998        0.0000000000000000     
  0.23125000000000001       0.98124999999999996        0.0000000000000000     
  0.20937500000000001       0.97812500000000002        0.0000000000000000     
  0.15625000000000000       0.87500000000000000        0.0000000000000000     
  0.18750000000000000       0.87500000000000000        0.0000000000000000     
  0.18750000000000000       0.90625000000000000        0.0000000000000000     
  0.14374999999999999       0.89375000000000004        0.0000000000000000     
  0.16562499999999999       0.89687499999999998        0.0000000000000000     
  0.16875000000000001       0.91874999999999996        0.0000000000000000     
  0.14687500000000001       0.91562500000000002        0.0000000000000000     
  0.21875000000000000       0.87500000000000000        0.0000000000000000     
  0.25000000000000000       0.87500000000000000        0.0000000000000000     
  0.25000000000000000       0.90625000000000000        0.0000000000000000     
  0.20624999999999999       0.89375000000000004        0.0000000000000000     
  0.22812499999999999       0.89687499999999998        0.0000000000000000     
  0.23125000000000001       0.91874999999999996        0.0000000000000000     
  0.20937500000000001       0.91562500000000002        0.0000000000000000     
   3.1250000000000000E-002  0.81250000000000000        0.0000000000000000     
   6.2500000000000000E-002  0.81250000000000000        0.0000000000000000     
   6.2500000000000000E-002  0.84375000000000000        0.0000000000000000     
   1.8749999999999999E-002  0.83125000000000004        0.0000000000000000     
   4.0625000000000001E-002  0.83437499999999998        0.0000000000000000     
   4.3749999999999997E-002  0.85624999999999996        0.0000000000000000     
   2.1874999999999999E-002  0.85312500000000002        0.0000000000000000     
   9.3750000000000000E-002  0.81250000000000000        0.0000000000000000     
  0.12500000000000000       0.81250000000000000        0.0000000000000000     
  0.12500000000000000       0.84375000000000000        0.0000000000000000     
   8.1250000000000003E-002  0.83125000000000004        0.0000000000000000     
  0.10312499999999999       0.83437499999999998        0.0000000000000000     
  0.10625000000000000       0.85624999999999996        0.0000000000000000     
   8.4375000000000006E-002  0.85312500000000002        0.0000000000000000     
   3.1250000000000000E-002  0.75000000000000000        0.0000000000000000     
   6.2500000000000000E-002  0.75000000000000000        0.0000000000000000     
   6.2500000000000000E-002  0.78125000000000000        0.0000000000000000     
   1.8749999999999999E-002  0.76875000000000004        0.0000000000000000     
   4.0625000000000001E-002  0.77187499999999998        0.0000000000000000     
   4.3749999999999997E-002  0.79374999999999996        0.0000000000000000     
   2.1874999999999999E-002  0.79062500000000002        0.0000000000000000     
   9.3750000000000000E-002  0.75000000000000000        0.0000000000000000     
  0.12500000000000000       0.75000000000000000        0.0000000000000000     
  0.12500000000000000       0.78125000000000000        0.0000000000000000     
   8.1250000000000003E-002  0.76875000000000004        0.0000000000000000     
  0.10312499999999999       0.77187499999999998        0.0000000000000000     
  0.10625000000000000       0.79374999999999996        0.0000000000000000     
   8.4375000000000006E-002  0.79062500000000002        0.0000000000000000     
  0.15625000000000000       0.81250000000000000        0.0000000000000000     
  0.18750000000000000       0.81250000000000000        0.0000000000000000     
  0.18750000000000000       0.84375000000000000        0.0000000000000000     
  0.14374999999999999       0.83125000000000004        0.0000000000000000     
  0.16562499999999999       0.83437499999999998        0.0000000000000000     
  0.16875000000000001       0.85624999999999996        0.0000000000000000     
  0.14687500000000001       0.85312500000000002        0.0000000000000000     
  0.21875000000000000       0.81250000000000000        0.0000000000000000     
  0.25000000000000000       0.81250000000000000        0.0000000000000000     
  0.25000000000000000       0.84375000000000000        0.0000000000000000     
  0.20624999999999999       0.83125000000000004        0.0000000000000000     
  0.22812499999999999       0.83437499999999998        0.0000000000000000     
  0.23125000000000001       0.85624999999999996        0.0000000000000000     
  0.20937500000000001       0.85312500000000002        0.0000000000000000     
  0.15625000000000000       0.75000000000000000        0.0000000000000000     
  0.18750000000000000       0.75000000000000000        0.0000000000000000     
  0.18750000000000000       0.78125000000000000        0.0000000000000000     
  0.14374999999999999       0.76875000000000004        0.0000000000000000     
  0.16562499999999999       0.77187499999999998        0.0000000000000000     
  0.16875000000000001       0.79374999999999996        0.0000000000000000     
  0.14687500000000001       0.79062500000000002        0.0000000000000000     
  0.21875000000000000       0.75000000000000000        0.0000000000000000     
  0.25000000000000000       0.75000000000000000        0.0000000000000000     
  0.25000000000000000       0.78125000000000000        0.0000000000000000     
  0.20624999999999999       0.76875000000000004        0.0000000000000000     
  0.22812499999999999       0.77187499999999998        0.0000000000000000     
  0.23125000000000001       0.79374999999999996        0.0000000000000000     
  0.20937500000000001       0.79062500000000002        0.0000000000000000     
  0.28125000000000000       0.93750000000000000        0.0000000000000000     
  0.31250000000000000       0.93750000000000000        0.0000000000000000     
  0.31250000000000000       0.96875000000000000        0.0000000000000000     
  0.26874999999999999       0.95625000000000004        0.0000000000000000     
  0.29062500000000002       0.95937499999999998        0.0000000000000000     
  0.29375000000000001       0.98124999999999996        0.0000000000000000     
  0.27187499999999998       0.97812500000000002        0.0000000000000000     
  0.34375000000000000       0.93750000000000000        0.0000000000000000     
  0.37500000000000000       0.93750000000000000        0.0000000000000000     
  0.37500000000000000       0.96875000000000000        0.0000000000000000     
  0.33124999999999999       0.95625000000000004        0.0000000000000000     
  0.35312500000000002       0.95937499999999998        0.0000000000000000     
  0.35625000000000001       0.98124999999999996        0.0000000000000000     
[...]
 CELL_DATA        3584
 SCALARS Endothelial_cells float
 LOOKUP_TABLE default
    0.99999775120049372301E+00
    0.99999917913805791425E+00
    0.99999940049426994104E+00
    0.99999955935910400662E+00
    0.99999920412804954584E+00
    0.99999740961583161170E+00
    0.99999914203907724897E+00
    0.99999840091672920206E+00
    0.99999905056563864747E+00
    0.99999929708187251798E+00
    0.99999859728150952698E+00
    0.99999918561318290600E+00
    0.99999827515615691276E+00
    0.99999825593387514644E+00
    0.99999964924262541022E+00
    0.10000000433486471163E+01
    0.99999959097677248998E+00
    0.99999966690077124465E+00
    0.99999935240449644436E+00
    0.99999749011031713319E+00
    0.99999928536377014066E+00
    0.99999858724126056142E+00
    0.99999910464558117162E+00
    0.99999779137913547000E+00
    0.99999942916140083238E+00
    0.99999951126553354719E+00
    0.99999890407359792732E+00
    0.99999848310169514587E+00
    0.99999782510931922719E+00
    0.99999931488513371658E+00
    0.99999950290361816485E+00
    0.99999980008606070836E+00
    0.10000001192851939447E+01
    0.99999961434292083950E+00
    0.99999959816578154470E+00
    0.99999932776800015688E+00
    0.99999760824425065753E+00
    0.99999919804792736233E+00
    0.99999869607752089884E+00
    0.99999930987866003651E+00
    0.99999844827630102184E+00
    0.99999892589514871588E+00
    0.99999975225395310030E+00
    0.10000001491420107413E+01
    0.99999961575621254539E+00
    0.99999982589436964275E+00
    0.10000001761809944600E+01
    0.99999962708977119252E+00
    0.99999979123282511928E+00
    0.10000001317406985724E+01
    0.99999954784285671749E+00
    0.99999985217941911309E+00
    0.10000001929051258731E+01
    0.99999970756541933792E+00
    0.99999941804480507734E+00
    0.99999943739471752746E+00
    0.99999969031759083915E+00
    0.10000000793277956657E+01
    0.99999960177684887874E+00
    0.99999967381041154901E+00
    0.99999937970113184083E+00
    0.99999749592134645759E+00
    0.99999929499690931589E+00
    0.99999862371863668109E+00
    0.99999913828770570223E+00
    0.99999784340177588771E+00
    0.99999948992881082521E+00
    0.99999958218409834565E+00
    0.99999907465644677362E+00
    0.99999865187911951558E+00
    0.99999969209485706223E+00
    0.10000000795830843447E+01
    0.99999960208421379004E+00
    0.99999967400727074462E+00
    0.99999938048214154218E+00
    0.99999749609050991861E+00
    0.99999929531566034147E+00
    0.99999862493240510020E+00
    0.99999913988210753502E+00
    0.99999784629836041550E+00
    0.99999949242634600388E+00
    0.99999958591678406172E+00
    0.99999907678212507367E+00
    0.99999865459679759816E+00
    0.99999977482084290159E+00
    0.10000001659950528143E+01
    0.99999962568033129440E+00
    0.99999983229301026011E+00
    0.10000001858237161922E+01
    0.99999963267678559919E+00
    0.99999980153506096148E+00
    0.10000001531201840876E+01
    0.99999958071902605994E+00
    0.99999983590081931162E+00
    0.10000002251299655587E+01
    0.99999974227670818117E+00
    0.99999944112024730103E+00
    0.99999945659283207000E+00
    0.99999977670928119622E+00
    0.10000001668449043368E+01
    0.99999962597900726724E+00
    0.99999983244938128735E+00
    0.10000001860897111960E+01
    0.99999963280737436122E+00
    0.99999980183332615180E+00
    0.10000001538881941876E+01
    0.99999958250421050465E+00
    0.99999983912956436072E+00
    0.10000002273869650349E+01
    0.99999974622240006550E+00
    0.99999944206213864373E+00
    0.99999945725121697215E+00
    0.99999782930821634608E+00
    0.99999932222246146196E+00
    0.99999950807391912999E+00
    0.99999980854165171351E+00
    0.10000001336252046791E+01
    0.99999964938605312437E+00
    0.99999959861668374916E+00
    0.99999935737957468262E+00
    0.99999765491449754684E+00
    0.99999922792365403268E+00
    0.99999871190262512588E+00
    0.99999931747148040895E+00
    0.99999846212363252551E+00
    0.99999894057159643967E+00
    0.99999975714671784921E+00
    0.10000001589088285403E+01
    0.99999962153124688502E+00
    0.99999983541285053512E+00
    0.10000001975474908100E+01
    0.99999965452661410126E+00
    0.99999976374142596214E+00
    0.10000001648051235481E+01
    0.99999960987318115002E+00
    0.99999989426089486155E+00
    0.10000002147059423585E+01
    0.99999971664641951197E+00
    0.99999944825572195661E+00
    0.99999947181699744281E+00
    0.99999782941356585297E+00
    0.99999932243118094810E+00
    0.99999950819548977243E+00
    0.99999980875722582763E+00
    0.10000001338366950598E+01
    0.99999965087792874741E+00
    0.99999960176673341472E+00
    0.99999935910268678008E+00
    0.99999765736048762399E+00
    0.99999922928968398850E+00
    0.99999871249740379664E+00
    0.99999931769990113573E+00
    0.99999846256197755245E+00
    0.99999894092715668759E+00
    0.99999975725478407185E+00
    0.10000001591420382141E+01
    0.99999962166195044411E+00
    0.99999983566418515490E+00
    0.10000001982821280500E+01
    0.99999965615867447699E+00
    0.99999976720741601266E+00
    0.10000001667572160358E+01
    0.99999961264305792241E+00
    0.99999989578589454364E+00
    0.10000002153698270835E+01
    0.99999971689136479824E+00
    0.99999944885046099241E+00
    0.99999947265640343197E+00
    0.99999977995289601740E+00
    0.10000001748170013194E+01
    0.99999963149218551450E+00
    0.99999984184364176798E+00
    0.10000002062025223903E+01
    0.99999966027521169920E+00
    0.99999977415176644069E+00
    0.10000001838773528995E+01
    0.99999963235073097145E+00
    0.99999987186961725172E+00
    0.10000002453400071989E+01
    0.99999975188504830470E+00
    0.99999945905613341068E+00
    0.99999947864958260713E+00
    0.99999978177276682700E+00
    0.10000001755446450424E+01
    0.99999963117079126995E+00
    0.99999984153321608282E+00
    0.10000002063803141716E+01
    0.99999966037448051459E+00
    0.99999977444907806046E+00
    0.10000001846748187706E+01
    0.99999963422597004659E+00
    0.99999987522833821973E+00
    0.10000002476450200461E+01
    0.99999975586519274096E+00
    0.99999945999151107490E+00
    0.99999947930218036074E+00
    0.99999978003160983064E+00
    0.10000001749497220427E+01
    0.99999963115302858974E+00
    0.99999984147211307128E+00
    0.10000002068040305669E+01
    0.99999966183701960443E+00
    0.99999977765214964620E+00
    0.10000001858753264639E+01
    0.99999963528467128437E+00
    0.99999987348833219158E+00
    0.10000002460184636011E+01
    0.99999975213396175011E+00
    0.99999945960662983691E+00
    0.99999947944530620525E+00
    0.99999977112826843317E+00
    0.10000001511270699694E+01
    0.99999946989591836921E+00
    0.99999970671836813096E+00
    0.10000001928966626430E+01
    0.99999965120784073402E+00
    0.99999977607733925300E+00
    0.10000001853021840414E+01
    0.99999963695294658006E+00
    0.99999987663951939165E+00
    0.10000002469602444766E+01
    0.99999975424581777350E+00
    0.99999945526886213631E+00
    0.99999947492276419769E+00
    0.99999969213001715929E+00
    0.10000000796314703067E+01
    0.99999960209140326128E+00
    0.99999967401336697925E+00
    0.99999938052141157385E+00
    0.99999749609565824482E+00
    0.99999929532353171169E+00
    0.99999862497903202474E+00
    0.99999913991281386139E+00
    0.99999784635893373963E+00
    0.99999949249992747813E+00
    0.99999958600641791762E+00
    0.99999907694265333102E+00
    0.99999865475260407699E+00
    0.99999969213014250347E+00
    0.10000000796312649154E+01
    0.99999960209056071303E+00
    0.99999967401307054971E+00
    0.99999938052126280397E+00
    0.99999749609566168651E+00
    0.99999929532369091767E+00
    0.99999862497914926429E+00
    0.99999913991313105210E+00
    0.99999784636037591934E+00
    0.99999949250011788138E+00
    0.99999958600798999342E+00
    0.99999907694241974010E+00
    0.99999865475237204038E+00
    0.99999977672445150567E+00
    0.10000001668417013434E+01
    0.99999962591213731322E+00
    0.99999983241890855190E+00
    0.10000001860869887071E+01
    0.99999963280755610473E+00
    0.99999980183788927945E+00
    0.10000001538995582084E+01
    0.99999958253412801756E+00
    0.99999983918545587436E+00
    0.10000002274259982560E+01
    0.99999974630355059624E+00
    0.99999944207364754867E+00
    0.99999945725860805990E+00
    0.99999977632743697331E+00
    0.10000001665890652092E+01
    0.99999962498609462624E+00
    0.99999983206357156984E+00
    0.10000001860125891096E+01
    0.99999963279089887358E+00
    0.99999980183452275018E+00
    0.10000001538934748524E+01
    0.99999958253306864275E+00
    0.99999983918344292899E+00
    0.10000002274046209116E+01
    0.99999974623431697740E+00
    0.99999944202381574332E+00
    0.99999945722956162797E+00
    0.99999969212724970635E+00
    0.10000000796300789752E+01
    0.99999960208673122075E+00
    0.99999967401170331005E+00
    0.99999938052085357576E+00
    0.99999749609536259243E+00
    0.99999929532364917328E+00
    0.99999862497915881221E+00
    0.99999913991318345463E+00
    0.99999784636035393692E+00
    0.99999949250004782630E+00
    0.99999958600752525406E+00
    0.99999907694228851174E+00
    0.99999865475224547495E+00
    0.99999969212022132847E+00
    0.10000000796277908055E+01
    0.99999960208154259345E+00
    0.99999967400979927756E+00
    0.99999938051979253562E+00
    0.99999749609433818964E+00
    0.99999929532309117519E+00
    0.99999862497860569910E+00
    0.99999913991304667515E+00
    0.99999784635996846749E+00
    0.99999949249961317399E+00
    0.99999958600602423253E+00
    0.99999907694167489147E+00
    0.99999865475182869723E+00
    0.99999977335237033582E+00
    0.10000001652160319665E+01
    0.99999962125168184723E+00
    0.99999983073941245415E+00
    0.10000001857236424652E+01
    0.99999963273370651162E+00
    0.99999980182138770157E+00
    0.10000001538609015750E+01
    0.99999958252432663564E+00
    0.99999983915928247757E+00
    0.10000002272448265117E+01
    0.99999974565766347467E+00
    0.99999944174176258471E+00
    0.99999945708225257412E+00
    0.99999976915167909652E+00
    0.10000001628379497909E+01
    0.99999961643787838028E+00
    0.99999982942963572263E+00
    0.10000001854160303072E+01
    0.99999963268246605530E+00
    0.99999980180589476131E+00
    0.10000001538081353392E+01
    0.99999958250403253590E+00
    0.99999983909545209215E+00
    0.10000002268502987679E+01
    0.99999974407544267585E+00
    0.99999944123322204170E+00
    0.99999945684670099588E+00
    0.99999977492945357760E+00
    0.10000001685038713006E+01
    0.99999960419915778775E+00
    0.99999982957356858826E+00
    0.10000002025879313194E+01
    0.99999965918460365089E+00
    0.99999977422253305548E+00
    0.10000001844057297973E+01
    0.99999963420617454801E+00
    0.99999987520830035947E+00
    0.10000002471450564201E+01
    0.99999975473668234471E+00
    0.99999945841926929369E+00
    0.99999947812771916578E+00
    0.99999964839287280860E+00
    0.10000001234723547849E+01
    0.99999927741364147415E+00
    0.99999972429585093359E+00
    0.10000002028136951715E+01
    0.99999964761099546795E+00
    0.99999977136218476392E+00
    0.10000001796636253104E+01
    0.99999963311412831679E+00
    0.99999987312119853478E+00
    0.10000002344073211091E+01
    0.99999972832955363877E+00
    0.99999943750055386715E+00
    0.99999946486098001408E+00
    0.99998992437170319825E+00
    0.99998808600422040005E+00
    0.99989309730964970324E+00
    0.99997690368747471634E+00
    0.99999770502882601164E+00
    0.99999918459381098579E+00
    0.99999970434952800691E+00
    0.10000001401817757429E+01
    0.99999961852385776950E+00
    0.99999984924098039851E+00
    0.10000000848758694438E+01
    0.99999894533272426500E+00
    0.99999827610570279912E+00
    0.99999897490323008675E+00
    0.99937094069733301005E+00
    0.99984735074997932447E+00
    0.99932575267521905893E+00
    0.99986927130122116303E+00
    0.99997899409112789293E+00
    0.99999450476669349275E+00
    0.99999859843859484343E+00
    0.99999852291148738637E+00
    0.99999923544225222116E+00
    0.99999892315109217833E+00
    0.99999120169919231138E+00
    0.99993614415558618180E+00
    0.99998041450153152265E+00
    0.99999127141424992704E+00
    0.99999839173970528350E+00
    0.99999953402660479718E+00
    0.99999734648012927885E+00
    0.99999901330647589237E+00
    0.10000000526343919560E+01
    0.99999961008569626664E+00
    0.99999976467439444239E+00
    0.10000001656929917715E+01
    0.99999962480041815205E+00
    0.99999985591674223073E+00
    0.10000002045083247193E+01
    0.99999949912469032753E+00
    0.99999928985238273338E+00
    0.99999937938046890018E+00
    0.99999483496902896729E+00
    0.99999819878626194924E+00
    0.99999474286707756843E+00
    0.99999820682694873231E+00
    0.99999984275528774891E+00
    0.99999957122509852692E+00
    0.99999975202966484567E+00
    0.10000001665316839983E+01
    0.99999960782676666771E+00
    0.99999980603794202949E+00
    0.10000000129160115936E+01
    0.99999862126078309377E+00
    0.99999898975139989155E+00
    0.99999924621057756369E+00
    0.99894317780505181847E+00
    0.99965745546455087034E+00
    0.99890175142575932110E+00
    0.99966913753460151515E+00
    0.99991924050895342191E+00
    0.99997694470023956725E+00
    0.99999337240371688473E+00
    0.99998866673281538997E+00
    0.99999607536864687507E+00
    0.99999267782778122893E+00
    0.99996020791317563603E+00
    0.99984074350004625842E+00
    0.99992877868677432218E+00
    0.99995763095747947080E+00
    0.99816912972387272784E+00
    0.99930311103487667879E+00
    0.99830292788186858477E+00
    0.99944812960872220220E+00
    0.99984621575162435647E+00
    0.99995990060735817639E+00
    0.99998661262211530065E+00
    0.99997004435208514117E+00
    0.99998765519831311899E+00
    0.99997283920477597619E+00
    0.99987534546319756235E+00
    0.99959924500969743466E+00
    0.99982279901769266495E+00
    0.99989581725134379919E+00
    0.99999782941462378449E+00
    0.99999932243317768421E+00
    0.99999950819642313693E+00
    0.99999980875824556747E+00
    0.10000001338263935224E+01
    0.99999965080466846068E+00
    0.99999960181488478650E+00
    0.99999935913329685011E+00
    0.99999765741221002813E+00
    0.99999922931372475787E+00
    0.99999871250593797001E+00
    0.99999931770237149298E+00
    0.99999846256852498172E+00
    0.99999894093567731623E+00
    0.99999975725430223505E+00
    0.10000001591374543253E+01
    0.99999962162965172485E+00
    0.99999983559522620524E+00
    0.10000001982757920072E+01
    0.99999965616695130066E+00
    0.99999976727342199112E+00
    0.10000001667874527378E+01
    0.99999961267684056576E+00
    0.99999989572126779525E+00
    0.10000002153593836596E+01
    0.99999971689212763248E+00
    0.99999944885341363054E+00
    0.99999947266405797563E+00
    0.99999782941461934360E+00
    0.99999932243314393343E+00
    0.99999950819621197251E+00
    0.99999980875751925957E+00
    0.10000001338262787254E+01
    0.99999965080442521081E+00
    0.99999960181528690928E+00
    0.99999935913341209126E+00
    0.99999765741268464847E+00
    0.99999922931387597025E+00
    0.99999871250602623274E+00
    0.99999931770257877162E+00
    0.99999846256843460957E+00
    0.99999894093567021081E+00
    0.99999975723747647205E+00
    0.10000001590633986748E+01
    0.99999962127476560436E+00
    0.99999983466996067438E+00
    0.10000001980229777931E+01
    0.99999965576971594494E+00
    0.99999976720313288325E+00
    0.10000001667658955373E+01
    0.99999961267414005928E+00
    0.99999989572005176797E+00
    0.10000002153533380511E+01
    0.99999971688891897692E+00
    0.99999944882430724657E+00
    0.99999947261338129056E+00
    0.99999977884714119636E+00
    0.10000001712631814144E+01
    0.99999961593378750013E+00
    0.99999982812392618214E+00
    0.10000001995946679045E+01
    0.99999965491763542769E+00
    0.99999977650437898991E+00
    0.10000001853661384388E+01
    0.99999963526111412815E+00
    0.99999987346319063608E+00
    0.10000002457460603900E+01
    0.99999975190529299951E+00
    0.99999945843287973979E+00
    0.99999947782274967167E+00
    0.99999933038906441141E+00
    0.99999769703574847846E+00
    0.99997662741249515594E+00
    0.99989328768920304746E+00
    0.99998808373366021574E+00
    0.99998977079354611774E+00
    0.99999895910019243050E+00
    0.10000000270837487992E+01
    0.99999961025472683396E+00
    0.99999985788303069612E+00
    0.10000002026615770756E+01
    0.99999968703035313489E+00
    0.99999895351113099462E+00
    0.99999828312836891442E+00
    0.99999976742067275826E+00
    0.10000001707158223674E+01
    0.99999946553047547315E+00
    0.99999948604044985867E+00
    0.10000001445797237487E+01
    0.99999950438714613199E+00
    0.99999975472571622781E+00
    0.10000001734719932145E+01
    0.99999963319889040303E+00
    0.99999987238176057947E+00
    0.10000002410888790827E+01
    0.99999974905967603522E+00
    0.99999944149656672110E+00
    0.99999945272901391569E+00
    0.99999467116642182241E+00
    0.99997899775860321636E+00
    0.99986897575284494621E+00
    0.99932592393561503474E+00
    0.99984733352303545306E+00
    0.99937078839204684932E+00
    0.99993611643843161030E+00
    0.99999111457119316260E+00
    0.99999875399160997880E+00
    0.99999948746598654736E+00
    0.99999858972561939119E+00
    0.99999859797088763713E+00
    0.99999125242772568534E+00
    0.99998040853723935140E+00
    0.99999782941435599870E+00
    0.99999932243295197587E+00
    0.99999950819490823761E+00
    0.99999980875333394081E+00
    0.10000001338251263139E+01
    0.99999965080173591758E+00
    0.99999960181474689680E+00
    0.99999935913326787329E+00
    0.99999765741265034258E+00
    0.99999922931385976099E+00
    0.99999871250591487737E+00
    0.99999931770238970064E+00
    0.99999846256837532366E+00
    0.99999894093546726204E+00
    0.99999975718019662452E+00
    0.10000001587750364518E+01
    0.99999961996105479756E+00
    0.99999983059617680858E+00
    0.10000001966570606360E+01
    0.99999965279868041623E+00
    0.99999976662681533401E+00
    0.10000001666062450223E+01
    0.99999961265012415890E+00
    0.99999989571114522580E+00
    0.10000002153209959221E+01
    0.99999971687564059852E+00
    0.99999944867677192928E+00
    0.99999947233255903623E+00
    0.99999782941436587969E+00
    0.99999932243244049612E+00
    0.99999950819714999994E+00
    0.99999980874866511993E+00
    0.10000001338230621872E+01
    0.99999965079496810905E+00
    0.99999960181366787104E+00
    0.99999935913279169863E+00
    0.99999765741252921725E+00
    0.99999922931375662127E+00
    0.99999871250536409573E+00
    0.99999931770192174163E+00
    0.99999846256761371066E+00
    0.99999894093474628320E+00
    0.99999975713384670062E+00
    0.10000001584574280677E+01
    0.99999961850054108758E+00
    0.99999982907963291812E+00
    0.10000001940628722163E+01
    0.99999964441801536541E+00
    0.99999976497244835727E+00
    0.10000001662141515535E+01
    0.99999961258629010974E+00
    0.99999989569136626955E+00
    0.10000002152684090984E+01
    0.99999971686061317477E+00
    0.99999944844086474660E+00
    0.99999947181646131611E+00
    0.99999972399345748997E+00
    0.10000000345060651163E+01
    0.99999874622305950922E+00
    0.99999754054354794697E+00
    0.99999954060471107908E+00
    0.99999824657227787128E+00
    0.99999950345082644354E+00
    0.10000001403892568863E+01
    0.99999961677385074132E+00
    0.99999986408344743172E+00
    0.10000002266561989206E+01
    0.99999973643952311253E+00
    0.99999935371301029718E+00
    0.99999930058283470480E+00
    0.99997712044352382588E+00
    0.99991924878063409565E+00
    0.99966883478893853177E+00
    0.99890191673626005375E+00
    0.99965743945599128129E+00
    0.99894303235463299817E+00
    0.99984069724443369598E+00
    0.99996011354016212103E+00
    0.99999254836718132200E+00
    0.99999634547722060507E+00
    0.99998873776331320684E+00
    0.99999337568219270889E+00