# vtk DataFile Version 3.0
LAPLACIEN  2D
ASCII
DATASET UNSTRUCTURED_GRID
 POINTS        1857  float
   3.1250000000000000E-002  0.93750000000000000        0.0000000000000000     
   6.2500000000000000E-002  0.93750000000000000        0.0000000000000000     
   6.2500000000000000E-002  0.96875000000000000        0.0000000000000000     
   1.8749999999999999E-002  0.95625000000000004        0.0000000000000000     
   4.0625000000000001E-002  0.95937499999999998        0.0000000000000000     
   4.3749999999999997E-002  0.98124999999999996        0.0000000000000000     
   2.1874999999999999E-002  0.97812500000000002        0.0000000000000000     
   9.3750000000000000E-002  0.93750000000000000        0.0000000000000000     
  0.12500000000000000       0.93750000000000000        0.0000000000000000     
  0.12500000000000000       0.96875000000000000        0.0000000000000000     
   8.1250000000000003E-002  0.95625000000000004        0.0000000000000000     
  0.10312499999999999       0.95937499999999998        0.0000000000000000     
  0.10625000000000000       0.98124999999999996        0.0000000000000000     
   8.4375000000000006E-002  0.97812500000000002        0.0000000000000000     
   3.1250000000000000E-002  0.87500000000000000        0.0000000000000000     
   6.2500000000000000E-002  0.87500000000000000        0.0000000000000000     
   6.2500000000000000E-002  0.90625000000000000        0.0000000000000000     
   1.8749999999999999E-002  0.89375000000000004        0.0000000000000000     
   4.0625000000000001E-002  0.89687499999999998        0.0000000000000000     
   4.3749999999999997E-002  0.91874999999999996        0.0000000000000000     
   2.1874999999999999E-002  0.91562500000000002        0.0000000000000000     
   9.3750000000000000E-002  0.87500000000000000        0.0000000000000000     
  0.12500000000000000       0.87500000000000000        0.0000000000000000     
  0.12500000000000000       0.90625000000000000        0.0000000000000000     
   8.1250000000000003E-002  0.89375000000000004        0.0000000000000000     
  0.10312499999999999       0.89687499999999998        0.0000000000000000     
  0.10625000000000000       0.91874999999999996        0.0000000000000000     
   8.4375000000000006E-002  0.91562500000000002        0.0000000000000000     
  0.15625000000000000       0.93750000000000000        0.0000000000000000     
  0.18750000000000000       0.93750000000000000        0.0000000000000000     
  0.18750000000000000       0.96875000000000000        0.0000000000000000     
  0.14374999999999999       0.95625000000000004        0.0000000000000000     
  0.16562499999999999       0.95937499999999998        0.0000000000000000     
  0.16875000000000001       0.98124999999999996        0.0000000000000000     
  0.14687500000000001       0.97812500000000002        0.0000000000000000     
  0.21875000000000000       0.93750000000000000        0.0000000000000000     
  0.25000000000000000       0.93750000000000000        0.0000000000000000     
  0.25000000000000000       0.96875000000000000        0.0000000000000000     
  0.20624999999999999       0.95625000000000004        0.0000000000000000     
  0.22812499999999999       0.95937499999999998        0.0000000000000000     
  0.23125000000000001       0.98124999999999996        0.0000000000000000     
  0.20937500000000001       0.97812500000000002        0.0000000000000000     
  0.15625000000000000       0.87500000000000000        0.0000000000000000     
  0.18750000000000000       0.87500000000000000        0.0000000000000000     
  0.18750000000000000       0.90625000000000000        0.0000000000000000     
  0.14374999999999999       0.89375000000000004        0.0000000000000000     
  0.16562499999999999       0.89687499999999998        0.0000000000000000     
  0.16875000000000001       0.91874999999999996        0.0000000000000000     
  0.14687500000000001       0.91562500000000002        0.0000000000000000     
  0.21875000000000000       0.87500000000000000        0.0000000000000000     
  0.25000000000000000       0.87500000000000000        0.0000000000000000     
  0.25000000000000000       0.90625000000000000        0.0000000000000000     
  0.20624999999999999       0.89375000000000004        0.0000000000000000     
  0.22812499999999999       0.89687499999999998        0.0000000000000000     
  0.23125000000000001       0.91874999999999996        0.0000000000000000     
  0.20937500000000001       0.91562500000000002        0.0000000000000000     
   3.1250000000000000E-002  0.81250000000000000        0.0000000000000000     
   6.2500000000000000E-002  0.81250000000000000        0.0000000000000000     
   6.2500000000000000E-002  0.84375000000000000        0.0000000000000000     
   1.8749999999999999E-002  0.83125000000000004        0.0000000000000000     
   4.0625000000000001E-002  0.83437499999999998        0.0000000000000000     
   4.3749999999999997E-002  0.85624999999999996        0.0000000000000000     
   2.1874999999999999E-002  0.85312500000000002        0.0000000000000000     
   9.3750000000000000E-002  0.81250000000000000        0.0000000000000000     
  0.12500000000000000       0.81250000000000000        0.0000000000000000     
  0.12500000000000000       0.84375000000000000        0.0000000000000000     
   8.1250000000000003E-002  0.83125000000000004        0.0000000000000000     
  0.10312499999999999       0.83437499999999998        0.0000000000000000     
  0.10625000000000000       0.85624999999999996        0.0000000000000000     
   8.4375000000000006E-002  0.85312500000000002        0.0000000000000000     
   3.1250000000000000E-002  0.75000000000000000        0.0000000000000000     
   6.2500000000000000E-002  0.75000000000000000        0.0000000000000000     
   6.2500000000000000E-002  0.78125000000000000        0.0000000000000000     
   1.8749999999999999E-002  0.76875000000000004        0.0000000000000000     
   4.0625000000000001E-002  0.77187499999999998        0.0000000000000000     
   4.3749999999999997E-002  0.79374999999999996        0.0000000000000000     
   2.1874999999999999E-002  0.79062500000000002        0.0000000000000000     
   9.3750000000000000E-002  0.75000000000000000        0.0000000000000000     
  0.12500000000000000       0.75000000000000000        0.0000000000000000     
  0.12500000000000000       0.78125000000000000        0.0000000000000000     
   8.1250000000000003E-002  0.76875000000000004        0.0000000000000000     
  0.10312499999999999       0.77187499999999998        0.0000000000000000     
  0.10625000000000000       0.79374999999999996        0.0000000000000000     
   8.4375000000000006E-002  0.79062500000000002        0.0000000000000000     
  0.15625000000000000       0.81250000000000000        0.0000000000000000     
  0.18750000000000000       0.81250000000000000        0.0000000000000000     
  0.18750000000000000       0.84375000000000000        0.0000000000000000     
  0.14374999999999999       0.83125000000000004        0.0000000000000000     
  0.16562499999999999       0.83437499999999998        0.0000000000000000     
  0.16875000000000001       0.85624999999999996        0.0000000000000000     
  0.14687500000000001       0.85312500000000002        0.0000000000000000     
  0.21875000000000000       0.81250000000000000        0.0000000000000000     
  0.25000000000000000       0.81250000000000000        0.0000000000000000     
  0.25000000000000000       0.84375000000000000        0.0000000000000000     
  0.20624999999999999       0.83125000000000004        0.0000000000000000     
  0.22812499999999999       0.83437499999999998        0.0000000000000000     
  0.23125000000000001       0.85624999999999996        0.0000000000000000     
  0.20937500000000001       0.85312500000000002        0.0000000000000000     
  0.15625000000000000       0.75000000000000000        0.0000000000000000     
  0.18750000000000000       0.75000000000000000        0.0000000000000000     
  0.18750000000000000       0.78125000000000000        0.0000000000000000     
  0.14374999999999999       0.76875000000000004        0.0000000000000000     
  0.16562499999999999       0.77187499999999998        0.0000000000000000     
  0.16875000000000001       0.79374999999999996        0.0000000000000000     
  0.14687500000000001       0.79062500000000002        0.0000000000000000     
  0.21875000000000000       0.75000000000000000        0.0000000000000000     
  0.25000000000000000       0.75000000000000000        0.0000000000000000     
  0.25000000000000000       0.78125000000000000        0.0000000000000000     
  0.20624999999999999       0.76875000000000004        0.0000000000000000     
  0.22812499999999999       0.77187499999999998        0.0000000000000000     
  0.23125000000000001       0.79374999999999996        0.0000000000000000     
  0.20937500000000001       0.79062500000000002        0.0000000000000000     
  0.28125000000000000       0.93750000000000000        0.0000000000000000     
  0.31250000000000000       0.93750000000000000        0.0000000000000000     
  0.31250000000000000       0.96875000000000000        0.0000000000000000     
  0.26874999999999999       0.95625000000000004        0.0000000000000000     
  0.29062500000000002       0.95937499999999998        0.0000000000000000     
  0.29375000000000001       0.98124999999999996        0.0000000000000000     
  0.27187499999999998       0.97812500000000002        0.0000000000000000     
  0.34375000000000000       0.93750000000000000        0.0000000000000000     
  0.37500000000000000       0.93750000000000000        0.0000000000000000     
  0.37500000000000000       0.96875000000000000        0.0000000000000000     
  0.33124999999999999       0.95625000000000004        0.0000000000000000     
  0.35312500000000002       0.95937499999999998        0.0000000000000000     
  0.35625000000000001       0.98124999999999996        0.0000000000000000     
[...]
 CELL_DATA        3584
 SCALARS Endothelial_cells float
 LOOKUP_TABLE default
    0.99999548002550231462E+00
    0.99999727055335108084E+00
    0.99999811407769967353E+00
    0.99999823200007031954E+00
    0.99999728351389771674E+00
    0.99999528163560424954E+00
    0.99999710161311727852E+00
    0.99999639870414602782E+00
    0.99999739766299533539E+00
    0.99999770048666891675E+00
    0.99999668298028143720E+00
    0.99999721215926551388E+00
    0.99999615139843123224E+00
    0.99999611326453397009E+00
    0.99999876876217930199E+00
    0.99999933177852629029E+00
    0.99999876067426052284E+00
    0.99999858406805419708E+00
    0.99999767144616369396E+00
    0.99999528885078203810E+00
    0.99999734519491600970E+00
    0.99999667253423440982E+00
    0.99999705686393935977E+00
    0.99999570441449825431E+00
    0.99999782226608169289E+00
    0.99999827206483105080E+00
    0.99999756772610348676E+00
    0.99999685360249579436E+00
    0.99999566834107467272E+00
    0.99999765171415755383E+00
    0.99999842263107296958E+00
    0.99999899016398430263E+00
    0.99999943721827688758E+00
    0.99999893890037139244E+00
    0.99999845593073399819E+00
    0.99999771110663870921E+00
    0.99999536889400408857E+00
    0.99999715976988978738E+00
    0.99999682910875253850E+00
    0.99999743830460707805E+00
    0.99999682885787632980E+00
    0.99999756518067572930E+00
    0.99999902905901494332E+00
    0.99999941631967748101E+00
    0.99999886937416848642E+00
    0.99999911297937027488E+00
    0.99999945364390252500E+00
    0.99999889346289450032E+00
    0.99999902515810779047E+00
    0.99999937507818958959E+00
    0.99999876826474143332E+00
    0.99999928975853291657E+00
    0.99999965192333650776E+00
    0.99999896666447329885E+00
    0.99999862011567386411E+00
    0.99999861677167345420E+00
    0.99999890370860744504E+00
    0.99999954376071220619E+00
    0.99999883464464456306E+00
    0.99999864737700572270E+00
    0.99999785415576392111E+00
    0.99999534910502907437E+00
    0.99999742876310271367E+00
    0.99999687934703496150E+00
    0.99999715640760988844E+00
    0.99999568710778119485E+00
    0.99999806100935251241E+00
    0.99999851282603047231E+00
    0.99999807347587399420E+00
    0.99999734922829985884E+00
    0.99999894281072421176E+00
    0.99999955004924268032E+00
    0.99999880249503669827E+00
    0.99999863062694804849E+00
    0.99999785228047022301E+00
    0.99999534877943285771E+00
    0.99999743202843671686E+00
    0.99999688690950216952E+00
    0.99999717259397313818E+00
    0.99999571749186377811E+00
    0.99999808074618556919E+00
    0.99999855166464446388E+00
    0.99999808139156387554E+00
    0.99999735462534122821E+00
    0.99999905905248021032E+00
    0.99999944115774974662E+00
    0.99999883349203266825E+00
    0.99999909907684703114E+00
    0.99999947444225179005E+00
    0.99999894208443596000E+00
    0.99999908126916159379E+00
    0.99999943602926977260E+00
    0.99999889183051404729E+00
    0.99999918454574454607E+00
    0.99999954010556990625E+00
    0.99999904252026827756E+00
    0.99999864745605737681E+00
    0.99999865960490597061E+00
    0.99999876732933801193E+00
    0.99999924156559449884E+00
    0.99999801957509582007E+00
    0.99999852137892564219E+00
    0.99999934492100439609E+00
    0.99999879937471847224E+00
    0.99999903332433281999E+00
    0.99999940862104086392E+00
    0.99999894040839121256E+00
    0.99999923404086010770E+00
    0.99999950312050678303E+00
    0.99999897823238514949E+00
    0.99999853962771478866E+00
    0.99999855318263963788E+00
    0.99999569195014048617E+00
    0.99999768464380833777E+00
    0.99999844880677446479E+00
    0.99999902485165426125E+00
    0.99999949409521637911E+00
    0.99999900241769357212E+00
    0.99999854211448224728E+00
    0.99999779582771897157E+00
    0.99999549707135859666E+00
    0.99999725207948875205E+00
    0.99999688619907378673E+00
    0.99999747325808507892E+00
    0.99999688036299294591E+00
    0.99999762439385941892E+00
    0.99999904212226353728E+00
    0.99999943616570419191E+00
    0.99999883299090408517E+00
    0.99999909864541269844E+00
    0.99999949054386483294E+00
    0.99999892363719045107E+00
    0.99999902141485697005E+00
    0.99999945987904692579E+00
    0.99999892017848313053E+00
    0.99999929619110461410E+00
    0.99999957291080232569E+00
    0.99999898984961332893E+00
    0.99999867895167027232E+00
    0.99999869582391087697E+00
    0.99999569260210585675E+00
    0.99999769905166158157E+00
    0.99999843250311115650E+00
    0.99999899985063900321E+00
    0.99999950839714524253E+00
    0.99999900694218191166E+00
    0.99999856114016205666E+00
    0.99999782529691627619E+00
    0.99999551520882112854E+00
    0.99999726545810074807E+00
    0.99999690932489615491E+00
    0.99999747774999070415E+00
    0.99999695342349759208E+00
    0.99999769842548946741E+00
    0.99999894222627094820E+00
    0.99999932606807262481E+00
    0.99999819230026898431E+00
    0.99999823804137943917E+00
    0.99999925555287916268E+00
    0.99999860048695798920E+00
    0.99999894790848575798E+00
    0.99999940952531618521E+00
    0.99999891705574994738E+00
    0.99999929112972141265E+00
    0.99999952241817446907E+00
    0.99999893801893591228E+00
    0.99999855846585827823E+00
    0.99999856989770874449E+00
    0.99999871237592508066E+00
    0.99999904197049394039E+00
    0.99999730906142270115E+00
    0.99999758290366780322E+00
    0.99999904857929100555E+00
    0.99999853975522812188E+00
    0.99999893875911960439E+00
    0.99999947343281647694E+00
    0.99999889588941204277E+00
    0.99999914292104152835E+00
    0.99999956644344878409E+00
    0.99999896570917101712E+00
    0.99999854230059048721E+00
    0.99999855073601151556E+00
    0.99999005581258160191E+00
    0.99998856211952447115E+00
    0.99997202719097200152E+00
    0.99997541021093117042E+00
    0.99999034397097408267E+00
    0.99999316234076041088E+00
    0.99999711663109147608E+00
    0.99999782705616191425E+00
    0.99999834751965943624E+00
    0.99999850456513783570E+00
    0.99999776076626734067E+00
    0.99999625430220540068E+00
    0.99999428021369562991E+00
    0.99999454949252841729E+00
    0.99999338952594407637E+00
    0.99999034558119115346E+00
    0.99997503942759347062E+00
    0.99997220840931289043E+00
    0.99998851506280450607E+00
    0.99998984699189918945E+00
    0.99999616678183633756E+00
    0.99999762598659791557E+00
    0.99999834823187139232E+00
    0.99999860155048425625E+00
    0.99999792976731116667E+00
    0.99999717227552598064E+00
    0.99999453000796190150E+00
    0.99999425259406371502E+00
    0.99987416316660526761E+00
    0.99982420854055575887E+00
    0.99957413068239342469E+00
    0.99957440842349154497E+00
    0.99982416003494123391E+00
    0.99987388578832614439E+00
    0.99995316304824255482E+00
    0.99995947335800694500E+00
    0.99998477417549525015E+00
    0.99998496126394698091E+00
    0.99995961752656770116E+00
    0.99995324613538782987E+00
    0.99991544449841729403E+00
    0.99991543284951822645E+00
    0.99999885362933527144E+00
    0.99999930529914615729E+00
    0.99999858519232254217E+00
    0.99999854671426724462E+00
    0.99999781210673177601E+00
    0.99999532993501394351E+00
    0.99999742346961695283E+00
    0.99999687796899094927E+00
    0.99999716985621434073E+00
    0.99999571490999694667E+00
    0.99999805992767365481E+00
    0.99999852341313477666E+00
    0.99999787154791797139E+00
    0.99999729140201332189E+00
    0.99999844148126981747E+00
    0.99999901495778453775E+00
    0.99999802778285618032E+00
    0.99999826876195330172E+00
    0.99999770213591865353E+00
    0.99999526995057086420E+00
    0.99999738511929281426E+00
    0.99999683158597785226E+00
    0.99999714440029641160E+00
    0.99999568808783079188E+00
    0.99999794208599956935E+00
    0.99999840276741902567E+00
    0.99999753106248423506E+00
    0.99999705569161012608E+00
    0.99999529278842980151E+00
    0.99999615154418630691E+00
    0.99999068965145032628E+00
    0.99999343491766312653E+00
    0.99999746429790159485E+00
    0.99999785270802477033E+00
    0.99999864767292234724E+00
    0.99999917590503673015E+00
    0.99999871743816270975E+00
    0.99999895336509603272E+00
    0.99999916423607171367E+00
    0.99999796471018354005E+00
    0.99999751507348033641E+00
    0.99999771758275945999E+00
    0.99997605114428123052E+00
    0.99998135229243401145E+00
    0.99996125628189269641E+00
    0.99997487700509168906E+00
    0.99999016399224316398E+00
    0.99999462163950914029E+00
    0.99999737373978836441E+00
    0.99999737748240613566E+00
    0.99999791907403134950E+00
    0.99999774190988766076E+00
    0.99999548835008877923E+00
    0.99999100308872346243E+00
    0.99999172771670297166E+00
    0.99999319265119757105E+00
    0.99999729631216649484E+00
    0.99999836728234481331E+00
    0.99999678366361499648E+00
    0.99999766450350913161E+00
    0.99999746281393175895E+00
    0.99999517202936683002E+00
    0.99999731698157001691E+00
    0.99999674312368747042E+00
    0.99999708594413549978E+00
    0.99999561589745311618E+00
    0.99999782506080148181E+00
    0.99999802908518375943E+00
    0.99999721810275954414E+00
    0.99999679301174082546E+00
    0.99999569995036685643E+00
    0.99999761261226294273E+00
    0.99999576103127496562E+00
    0.99999720334762642882E+00
    0.99999727125005222206E+00
    0.99999511301897070492E+00
    0.99999726755080720064E+00
    0.99999665517125024827E+00
    0.99999701881014546601E+00
    0.99999551889430460250E+00
    0.99999759491619155671E+00
    0.99999740340613907374E+00
    0.99999690889927905779E+00
    0.99999657394151741929E+00
    0.99992056842989007759E+00
    0.99994548095870583460E+00
    0.99990090137349652011E+00
    0.99994093184502164107E+00
    0.99997603828137082704E+00
    0.99998904217159756413E+00
    0.99999488619623699837E+00
    0.99999304225169627358E+00
    0.99999571990316915571E+00
    0.99999404584343576374E+00
    0.99998448775878490125E+00
    0.99996866005240991893E+00
    0.99997722778970066226E+00
    0.99998255240966538171E+00
    0.99984420816062924420E+00
    0.99990633203714462951E+00
    0.99985122911932555745E+00
    0.99991805152722068595E+00
    0.99996544458948011247E+00
    0.99998572006320962657E+00
    0.99999292506314541029E+00
    0.99998851602851734910E+00
    0.99999277963956123561E+00
    0.99998844056119284840E+00
    0.99996898197188610613E+00
    0.99993357779891034465E+00
    0.99996093137488317737E+00
    0.99997164593639586982E+00
    0.99989754078214776456E+00
    0.99989486969655116955E+00
    0.99977011305688900933E+00
    0.99981920577238070358E+00
    0.99992613464494961573E+00
    0.99995786192458169239E+00
    0.99998356682994760103E+00
    0.99998217229128949501E+00
    0.99999228326980460491E+00
    0.99999094857784642798E+00
    0.99997499603586492700E+00
    0.99996236330323218233E+00
    0.99995363239654877496E+00
    0.99995887847802822357E+00
    0.99936493996257058647E+00
    0.99944666370033419245E+00
    0.99892246141855067787E+00
    0.99923249600195340747E+00
    0.99967340830218121006E+00
    0.99983269012112019336E+00
    0.99993017138653228493E+00
    0.99990987889772120489E+00
    0.99995971806347072608E+00
    0.99994598085205177451E+00
    0.99984664597417294285E+00
    0.99975023842999044543E+00
    0.99975586756176804126E+00
    0.99979570782639581861E+00
    0.99789873663216421829E+00
    0.99759745805899258109E+00
    0.99370336105989043318E+00
    0.99561820022263647356E+00
    0.99831490915803589026E+00
    0.99901467656895359681E+00
    0.99960914698466052375E+00
    0.99959304019428152355E+00
    0.99983902873547036982E+00
    0.99981905957089578507E+00
    0.99948818931136473864E+00
    0.99929807040048412858E+00
    0.99901642998735595835E+00
    0.99911866010480321343E+00
    0.98073573788560508557E+00
    0.98611049570102260464E+00
    0.97249710234956598942E+00
    0.98229609169922460499E+00
    0.99242734370512897257E+00
    0.99587483342452542967E+00
    0.99818163291403394499E+00
    0.99778360430349488652E+00
    0.99899248740087931431E+00
    0.99870987775580755130E+00
    0.99635878366957453256E+00
    0.99360035904410137775E+00
    0.99422673796913896282E+00
    0.99522668269647385220E+00
    0.99776813274426534583E+00
    0.99832372540883285161E+00
    0.99711865114549813605E+00
    0.99812090360062521999E+00
    0.99916659088016102075E+00
    0.99960853759188372791E+00
    0.99982173870791546388E+00
    0.99973504857523665112E+00
    0.99986612563378285401E+00
    0.99980226940934779911E+00
    0.99946126776250976409E+00
    0.99904549734297465324E+00
    0.99925083184352125887E+00
    0.99940532062664122481E+00
    0.99549510252689565881E+00
    0.99706171494686857137E+00
    0.99559080780011000034E+00
    0.99735321270112786696E+00
    0.99877405596929058618E+00
    0.99946790092099679903E+00
    0.99973361893906564912E+00
    0.99954750327068342397E+00
    0.99973683290838655235E+00
    0.99957585336027532374E+00
    0.99890200609810086974E+00
    0.99789349956856521207E+00
    0.99866713243008609080E+00
    0.99899446716244277855E+00
    0.95101934114527075792E+00
    0.96433654633757026620E+00
    0.94142154850155446155E+00
    0.96029051901258266621E+00
    0.98110482864959969174E+00
    0.99016955323760291741E+00
    0.99518778750014946777E+00
    0.99334216492962901235E+00
    0.99647343205877647598E+00
    0.99512222353724533175E+00
    0.98770893549029326053E+00
    0.97878951565663574463E+00
    0.98313733950065018696E+00
    0.98623396450640210542E+00
    0.91478408636339103577E+00
    0.94107813085429170563E+00
    0.91632130189050065017E+00
    0.94532560349081984352E+00
    0.97221598670124209640E+00
    0.98651853335721306770E+00
    0.99268584857003960842E+00
    0.98845612056029075188E+00
    0.99288270762285335547E+00
    0.98933610553793494002E+00
    0.97528698993424645103E+00
    0.95621606903962863555E+00
    0.97035194336022156936E+00
    0.97666934979827668695E+00
    0.99999567237650688334E+00
    0.99999764164791971055E+00
    0.99999829305235177213E+00
    0.99999884562869589821E+00
    0.99999928168963481134E+00
    0.99999880996988010917E+00
    0.99999852335880179410E+00
    0.99999779196100246903E+00
    0.99999551110929874032E+00
    0.99999726074620465255E+00
    0.99999688454538315785E+00
    0.99999746719799931238E+00
    0.99999685897546075619E+00
    0.99999746779480735981E+00
    0.99999804239472045442E+00
    0.99999746038209247345E+00
    0.99999307711019225220E+00
    0.99999087504306127805E+00
    0.99999612712191909836E+00
    0.99999512482958829995E+00
    0.99999787988231891855E+00
    0.99999903937501788409E+00
    0.99999876148937016929E+00
    0.99999906104200597667E+00
    0.99999929539412646395E+00
    0.99999864061746956967E+00
    0.99999771249763780290E+00
    0.99999750805673992549E+00
    0.99999561886839671843E+00
    0.99999755201970241814E+00
    0.99999794142584852441E+00
    0.99999823372266016808E+00
    0.99999894013458789921E+00
    0.99999834564567213757E+00
    0.99999837199004770749E+00
    0.99999769646930902756E+00
    0.99999548591403919495E+00
    0.99999723725073574876E+00
    0.99999686844113555573E+00
    0.99999743099121130019E+00
    0.99999676146157800982E+00
    0.99999724613735929690E+00
    0.99999485001457455446E+00
    0.99999016787768213455E+00
    0.99997450619108774195E+00
    0.99996143131619164013E+00
    0.99998133386863707894E+00
    0.99997590079559239840E+00
    0.99999088961627513594E+00
    0.99999535750971935144E+00
    0.99999765378597305077E+00
    0.99999829012181062904E+00
    0.99999750881352367227E+00
    0.99999740347340859703E+00
    0.99999318424196548261E+00
    0.99999171077594017909E+00
    0.99995811816883084511E+00
    0.99992614140797619893E+00
    0.99981881634735259023E+00
    0.99977027029882303832E+00
    0.99989480534249919330E+00
    0.99989736134900397690E+00
    0.99996222823594660412E+00
    0.99997485154279652786E+00
    0.99999087404037267923E+00
    0.99999259072002177895E+00
    0.99998228800320732024E+00
    0.99998362008402086332E+00
    0.99995885476853463292E+00
    0.99995359105148629020E+00
    0.99901496441825810013E+00
    0.99831492591589165997E+00
    0.99561780154417089950E+00
    0.99370351433792381002E+00
    0.99759736730440962127E+00
    0.99789849069560931927E+00
    0.99929795025623824323E+00
    0.99948805459411083074E+00
    0.99981903253063508785E+00
    0.99983935750112906682E+00
    0.99959316635566641818E+00
    0.99960919682110693785E+00
    0.99911863683350277121E+00
    0.99901638195356012861E+00
    0.99983296065633264771E+00
    0.99967341903224338218E+00
    0.99923210030730469366E+00
    0.99892261789464964483E+00
    0.99944662650589810582E+00
    0.99936479014572054957E+00
    0.99975009276385851109E+00
    0.99984650549453801816E+00
    0.99994594059431562982E+00
    0.99996005206769822404E+00
    0.99991000443155020339E+00
    0.99993022369811845884E+00
    0.99979568761291293111E+00
    0.99975583162014292071E+00
    0.99587512916010068054E+00
    0.99242736508995454958E+00
    0.98229569598830879240E+00
    0.97249724851335828113E+00
    0.98611045339804470622E+00
    0.98073559080564109980E+00
    0.99360020274361593451E+00
    0.99635865070197748850E+00
    0.99870987293191026968E+00
    0.99899284185208592213E+00
    0.99778374113515977406E+00
    0.99818168448322042163E+00
    0.99522666734175668779E+00
    0.99422670280836933365E+00
    0.99999552499039767728E+00
    0.99999733591528683352E+00
    0.99999731473112085656E+00
    0.99999697186711966612E+00
    0.99999830401770894994E+00
    0.99999720339176023653E+00
    0.99999796046075584144E+00
    0.99999758357991797020E+00
    0.99999542065591862094E+00
    0.99999718252081770675E+00
    0.99999681669066087242E+00
    0.99999736664572447253E+00
    0.99999657649590811825E+00
    0.99999699412119991138E+00
    0.99998927808421800290E+00
    0.99997604334811174276E+00
    0.99994055599863762573E+00
    0.99990107218135759748E+00
    0.99994546021253527535E+00
    0.99992042231308675415E+00
    0.99996853457828605016E+00
    0.99998436126757439535E+00
    0.99999400091747514541E+00
    0.99999610460847954130E+00
    0.99999318190608676993E+00
    0.99999492291607861016E+00
    0.99998254319871848761E+00
    0.99997720774528453536E+00
    0.99999546299972363883E+00
    0.99999716104608715739E+00
    0.99999688928603025495E+00
    0.99999594631035204628E+00
    0.99999755439198301232E+00
    0.99999559924578773629E+00
    0.99999731101848399195E+00
    0.99999734481932378571E+00
    0.99999532554407499774E+00
    0.99999711814643932328E+00
    0.99999674552968487173E+00
    0.99999731998645058351E+00
    0.99999638972493587463E+00
    0.99999670817983954407E+00
    0.99998575272664425029E+00
    0.99996542582239977826E+00
    0.99991768070894959664E+00
    0.99985138020676489479E+00
    0.99990630780776568187E+00
    0.99984406326139585452E+00
    0.99993344751658319591E+00
    0.99996885318141048860E+00
    0.99998840058783933227E+00
    0.99999315950239386908E+00
    0.99998865141072756924E+00
    0.99999293782334608416E+00
    0.99997163273455891286E+00
    0.99996090837315276811E+00
    0.99960881352946551193E+00
    0.99916660333626627910E+00
    0.99812050565615084707E+00
    0.99711880462164870220E+00
    0.99832368748255562174E+00
    0.99776798573400793391E+00
    0.99904534572059766617E+00
    0.99946112987363777691E+00
    0.99980224570703246645E+00
    0.99986647152182084319E+00
    0.99973517936251987681E+00
    0.99982179077930044553E+00
    0.99940530169907826341E+00
    0.99925079610157518939E+00
    0.99016984860882306663E+00
    0.98110484965091326881E+00
    0.96029012162028448696E+00
    0.94142165904529528930E+00
    0.96433649903290963312E+00
    0.95101920212176027647E+00
    0.97878935928096688635E+00
    0.98770880667141580656E+00
    0.99512222940975314511E+00
    0.99647379232756416734E+00
    0.99334230473143081408E+00
    0.99518783860220993986E+00