# vtk DataFile Version 3.0
LAPLACIEN  2D
ASCII
DATASET UNSTRUCTURED_GRID
 POINTS        1857  float
   3.1250000000000000E-002  0.93750000000000000        0.0000000000000000     
   6.2500000000000000E-002  0.93750000000000000        0.0000000000000000     
   6.2500000000000000E-002  0.96875000000000000        0.0000000000000000     
   1.8749999999999999E-002  0.95625000000000004        0.0000000000000000     
   4.0625000000000001E-002  0.95937499999999998        0.0000000000000000     
   4.3749999999999997E-002  0.98124999999999996        0.0000000000000000     
   2.1874999999999999E-002  0.97812500000000002        0.0000000000000000     
   9.3750000000000000E-002  0.93750000000000000        0.0000000000000000     
  0.12500000000000000       0.93750000000000000        0.0000000000000000     
  0.12500000000000000       0.96875000000000000        0.0000000000000000     
   8.1250000000000003E-002  0.95625000000000004        0.0000000000000000     
  0.10312499999999999       0.95937499999999998        0.0000000000000000     
  0.10625000000000000       0.98124999999999996        0.0000000000000000     
   8.4375000000000006E-002  0.97812500000000002        0.0000000000000000     
   3.1250000000000000E-002  0.87500000000000000        0.0000000000000000     
   6.2500000000000000E-002  0.87500000000000000        0.0000000000000000     
   6.2500000000000000E-002  0.90625000000000000        0.0000000000000000     
   1.8749999999999999E-002  0.89375000000000004        0.0000000000000000     
   4.0625000000000001E-002  0.89687499999999998        0.0000000000000000     
   4.3749999999999997E-002  0.91874999999999996        0.0000000000000000     
   2.1874999999999999E-002  0.91562500000000002        0.0000000000000000     
   9.3750000000000000E-002  0.87500000000000000        0.0000000000000000     
  0.12500000000000000       0.87500000000000000        0.0000000000000000     
  0.12500000000000000       0.90625000000000000        0.0000000000000000     
   8.1250000000000003E-002  0.89375000000000004        0.0000000000000000     
  0.10312499999999999       0.89687499999999998        0.0000000000000000     
  0.10625000000000000       0.91874999999999996        0.0000000000000000     
   8.4375000000000006E-002  0.91562500000000002        0.0000000000000000     
  0.15625000000000000       0.93750000000000000        0.0000000000000000     
  0.18750000000000000       0.93750000000000000        0.0000000000000000     
  0.18750000000000000       0.96875000000000000        0.0000000000000000     
  0.14374999999999999       0.95625000000000004        0.0000000000000000     
  0.16562499999999999       0.95937499999999998        0.0000000000000000     
  0.16875000000000001       0.98124999999999996        0.0000000000000000     
  0.14687500000000001       0.97812500000000002        0.0000000000000000     
  0.21875000000000000       0.93750000000000000        0.0000000000000000     
  0.25000000000000000       0.93750000000000000        0.0000000000000000     
  0.25000000000000000       0.96875000000000000        0.0000000000000000     
  0.20624999999999999       0.95625000000000004        0.0000000000000000     
  0.22812499999999999       0.95937499999999998        0.0000000000000000     
  0.23125000000000001       0.98124999999999996        0.0000000000000000     
  0.20937500000000001       0.97812500000000002        0.0000000000000000     
  0.15625000000000000       0.87500000000000000        0.0000000000000000     
  0.18750000000000000       0.87500000000000000        0.0000000000000000     
  0.18750000000000000       0.90625000000000000        0.0000000000000000     
  0.14374999999999999       0.89375000000000004        0.0000000000000000     
  0.16562499999999999       0.89687499999999998        0.0000000000000000     
  0.16875000000000001       0.91874999999999996        0.0000000000000000     
  0.14687500000000001       0.91562500000000002        0.0000000000000000     
  0.21875000000000000       0.87500000000000000        0.0000000000000000     
  0.25000000000000000       0.87500000000000000        0.0000000000000000     
  0.25000000000000000       0.90625000000000000        0.0000000000000000     
  0.20624999999999999       0.89375000000000004        0.0000000000000000     
  0.22812499999999999       0.89687499999999998        0.0000000000000000     
  0.23125000000000001       0.91874999999999996        0.0000000000000000     
  0.20937500000000001       0.91562500000000002        0.0000000000000000     
   3.1250000000000000E-002  0.81250000000000000        0.0000000000000000     
   6.2500000000000000E-002  0.81250000000000000        0.0000000000000000     
   6.2500000000000000E-002  0.84375000000000000        0.0000000000000000     
   1.8749999999999999E-002  0.83125000000000004        0.0000000000000000     
   4.0625000000000001E-002  0.83437499999999998        0.0000000000000000     
   4.3749999999999997E-002  0.85624999999999996        0.0000000000000000     
   2.1874999999999999E-002  0.85312500000000002        0.0000000000000000     
   9.3750000000000000E-002  0.81250000000000000        0.0000000000000000     
  0.12500000000000000       0.81250000000000000        0.0000000000000000     
  0.12500000000000000       0.84375000000000000        0.0000000000000000     
   8.1250000000000003E-002  0.83125000000000004        0.0000000000000000     
  0.10312499999999999       0.83437499999999998        0.0000000000000000     
  0.10625000000000000       0.85624999999999996        0.0000000000000000     
   8.4375000000000006E-002  0.85312500000000002        0.0000000000000000     
   3.1250000000000000E-002  0.75000000000000000        0.0000000000000000     
   6.2500000000000000E-002  0.75000000000000000        0.0000000000000000     
   6.2500000000000000E-002  0.78125000000000000        0.0000000000000000     
   1.8749999999999999E-002  0.76875000000000004        0.0000000000000000     
   4.0625000000000001E-002  0.77187499999999998        0.0000000000000000     
   4.3749999999999997E-002  0.79374999999999996        0.0000000000000000     
   2.1874999999999999E-002  0.79062500000000002        0.0000000000000000     
   9.3750000000000000E-002  0.75000000000000000        0.0000000000000000     
  0.12500000000000000       0.75000000000000000        0.0000000000000000     
  0.12500000000000000       0.78125000000000000        0.0000000000000000     
   8.1250000000000003E-002  0.76875000000000004        0.0000000000000000     
  0.10312499999999999       0.77187499999999998        0.0000000000000000     
  0.10625000000000000       0.79374999999999996        0.0000000000000000     
   8.4375000000000006E-002  0.79062500000000002        0.0000000000000000     
  0.15625000000000000       0.81250000000000000        0.0000000000000000     
  0.18750000000000000       0.81250000000000000        0.0000000000000000     
  0.18750000000000000       0.84375000000000000        0.0000000000000000     
  0.14374999999999999       0.83125000000000004        0.0000000000000000     
  0.16562499999999999       0.83437499999999998        0.0000000000000000     
  0.16875000000000001       0.85624999999999996        0.0000000000000000     
  0.14687500000000001       0.85312500000000002        0.0000000000000000     
  0.21875000000000000       0.81250000000000000        0.0000000000000000     
  0.25000000000000000       0.81250000000000000        0.0000000000000000     
  0.25000000000000000       0.84375000000000000        0.0000000000000000     
  0.20624999999999999       0.83125000000000004        0.0000000000000000     
  0.22812499999999999       0.83437499999999998        0.0000000000000000     
  0.23125000000000001       0.85624999999999996        0.0000000000000000     
  0.20937500000000001       0.85312500000000002        0.0000000000000000     
  0.15625000000000000       0.75000000000000000        0.0000000000000000     
  0.18750000000000000       0.75000000000000000        0.0000000000000000     
  0.18750000000000000       0.78125000000000000        0.0000000000000000     
  0.14374999999999999       0.76875000000000004        0.0000000000000000     
  0.16562499999999999       0.77187499999999998        0.0000000000000000     
  0.16875000000000001       0.79374999999999996        0.0000000000000000     
  0.14687500000000001       0.79062500000000002        0.0000000000000000     
  0.21875000000000000       0.75000000000000000        0.0000000000000000     
  0.25000000000000000       0.75000000000000000        0.0000000000000000     
  0.25000000000000000       0.78125000000000000        0.0000000000000000     
  0.20624999999999999       0.76875000000000004        0.0000000000000000     
  0.22812499999999999       0.77187499999999998        0.0000000000000000     
  0.23125000000000001       0.79374999999999996        0.0000000000000000     
  0.20937500000000001       0.79062500000000002        0.0000000000000000     
  0.28125000000000000       0.93750000000000000        0.0000000000000000     
  0.31250000000000000       0.93750000000000000        0.0000000000000000     
  0.31250000000000000       0.96875000000000000        0.0000000000000000     
  0.26874999999999999       0.95625000000000004        0.0000000000000000     
  0.29062500000000002       0.95937499999999998        0.0000000000000000     
  0.29375000000000001       0.98124999999999996        0.0000000000000000     
  0.27187499999999998       0.97812500000000002        0.0000000000000000     
  0.34375000000000000       0.93750000000000000        0.0000000000000000     
  0.37500000000000000       0.93750000000000000        0.0000000000000000     
  0.37500000000000000       0.96875000000000000        0.0000000000000000     
  0.33124999999999999       0.95625000000000004        0.0000000000000000     
  0.35312500000000002       0.95937499999999998        0.0000000000000000     
  0.35625000000000001       0.98124999999999996        0.0000000000000000     
[...]
 CELL_DATA        3584
 SCALARS Endothelial_cells float
 LOOKUP_TABLE default
    0.99999445368538497636E+00
    0.99999630944188411252E+00
    0.99999734531020489925E+00
    0.99999744951406666083E+00
    0.99999634245278834488E+00
    0.99999433996805486835E+00
    0.99999608213917434707E+00
    0.99999540782225948554E+00
    0.99999647410826097982E+00
    0.99999677250474250378E+00
    0.99999568981997810635E+00
    0.99999617129461859655E+00
    0.99999516132462662465E+00
    0.99999512480998975494E+00
    0.99999821963988344553E+00
    0.99999870656628175869E+00
    0.99999819913282217421E+00
    0.99999793074217468991E+00
    0.99999682791128430281E+00
    0.99999432553984457517E+00
    0.99999632788114045656E+00
    0.99999572830559879666E+00
    0.99999606022330411736E+00
    0.99999476426788980188E+00
    0.99999699355987436977E+00
    0.99999754842642085695E+00
    0.99999680878044150401E+00
    0.99999604875567205120E+00
    0.99999469963958032004E+00
    0.99999681955337271777E+00
    0.99999778364170965883E+00
    0.99999844022897010909E+00
    0.99999883248988119533E+00
    0.99999844529699255524E+00
    0.99999774237368288521E+00
    0.99999686395761155921E+00
    0.99999436628987237174E+00
    0.99999611328626547557E+00
    0.99999588025779695410E+00
    0.99999644105361751301E+00
    0.99999603082709032087E+00
    0.99999680811368629740E+00
    0.99999855216687527637E+00
    0.99999892089807518314E+00
    0.99999831222724155921E+00
    0.99999857581037743248E+00
    0.99999895027014007454E+00
    0.99999842537005356746E+00
    0.99999850353277397463E+00
    0.99999889105010097978E+00
    0.99999830339981843341E+00
    0.99999886164308915415E+00
    0.99999926295551300193E+00
    0.99999849023809794790E+00
    0.99999820295071906173E+00
    0.99999817796510515056E+00
    0.99999839566104187227E+00
    0.99999895599578858540E+00
    0.99999820822065887960E+00
    0.99999799578081638440E+00
    0.99999704785397736106E+00
    0.99999440514266890734E+00
    0.99999644891660977031E+00
    0.99999598359452157581E+00
    0.99999615650464179772E+00
    0.99999471959336427851E+00
    0.99999727602397314730E+00
    0.99999787801716910618E+00
    0.99999738359845302682E+00
    0.99999661491204028252E+00
    0.99999821154361956399E+00
    0.99999857515762102800E+00
    0.99999775107990085399E+00
    0.99999769141546401841E+00
    0.99999692841071208260E+00
    0.99999430859191273946E+00
    0.99999639872748846692E+00
    0.99999594573207273296E+00
    0.99999615866005719944E+00
    0.99999474840500202077E+00
    0.99999721404903607613E+00
    0.99999788142578938110E+00
    0.99999693794923072421E+00
    0.99999638151791081508E+00
    0.99999822788196968126E+00
    0.99999864343306699155E+00
    0.99999726259829124775E+00
    0.99999764887742059738E+00
    0.99999869954938547245E+00
    0.99999818577598842406E+00
    0.99999844580903041180E+00
    0.99999892122303857267E+00
    0.99999841187396121267E+00
    0.99999869648633055164E+00
    0.99999905147500434133E+00
    0.99999845990700364506E+00
    0.99999807916492933213E+00
    0.99999806273144753455E+00
    0.99999322704716053778E+00
    0.99999337742533311868E+00
    0.99998571300527550054E+00
    0.99998822108701834743E+00
    0.99999479839892879696E+00
    0.99999580571077095748E+00
    0.99999750903631767773E+00
    0.99999816488653836544E+00
    0.99999804564371141957E+00
    0.99999825922401175404E+00
    0.99999816597800728069E+00
    0.99999685347343236774E+00
    0.99999596980831695348E+00
    0.99999618152045099961E+00
    0.99999472079937512525E+00
    0.99999684321602044790E+00
    0.99999775948814006998E+00
    0.99999840697261588307E+00
    0.99999886761618062003E+00
    0.99999845625390904047E+00
    0.99999789534484528897E+00
    0.99999698227019040431E+00
    0.99999453574498431419E+00
    0.99999623504876522517E+00
    0.99999595278271113941E+00
    0.99999648360500847932E+00
    0.99999609005215106539E+00
    0.99999687610320275866E+00
    0.99999833619390443573E+00
    0.99999869644824046500E+00
    0.99999732579212086137E+00
    0.99999747156072082976E+00
    0.99999864192846610322E+00
    0.99999804170647388357E+00
    0.99999841005369671798E+00
    0.99999896245896169322E+00
    0.99999843905314622639E+00
    0.99999877297421424505E+00
    0.99999904710791853724E+00
    0.99999838105591787318E+00
    0.99999808195155648338E+00
    0.99999810967125157823E+00
    0.99999467400694086461E+00
    0.99999675798745335520E+00
    0.99999736932727545380E+00
    0.99999795950719849724E+00
    0.99999849535863372108E+00
    0.99999810463936722460E+00
    0.99999783094944072470E+00
    0.99999694338494005130E+00
    0.99999454413304178502E+00
    0.99999623431030715270E+00
    0.99999595380904782171E+00
    0.99999644374180807205E+00
    0.99999603126100167216E+00
    0.99999659784948680130E+00
    0.99999602592626812836E+00
    0.99999480428979892199E+00
    0.99998785393681899336E+00
    0.99998587598497024054E+00
    0.99999332953728170548E+00
    0.99999304489031703991E+00
    0.99999674360953838548E+00
    0.99999803002355425185E+00
    0.99999810351415607812E+00
    0.99999833192071130306E+00
    0.99999828239487287274E+00
    0.99999754736245016762E+00
    0.99999617589319811373E+00
    0.99999595065468249722E+00
    0.99999233895197647826E+00
    0.99999060898305902612E+00
    0.99997853517074675178E+00
    0.99997880463519983607E+00
    0.99999057217820330745E+00
    0.99999209080964668317E+00
    0.99999638946359314939E+00
    0.99999741985159351643E+00
    0.99999783386994878231E+00
    0.99999801231367813070E+00
    0.99999754204429891491E+00
    0.99999647693174731344E+00
    0.99999442521317816190E+00
    0.99999441878540640261E+00
    0.99992114938532850044E+00
    0.99990762471858540827E+00
    0.99980449273590665804E+00
    0.99982279343588553733E+00
    0.99992017808142086288E+00
    0.99994524641011195421E+00
    0.99997721992888699560E+00
    0.99997828819688427959E+00
    0.99999008608456385616E+00
    0.99998952409279351361E+00
    0.99997508608717489142E+00
    0.99996797555479721709E+00
    0.99995359438151565357E+00
    0.99995578294293485655E+00
    0.99994552605269559908E+00
    0.99992019248714258950E+00
    0.99982240219527485081E+00
    0.99980464291857618075E+00
    0.99990753474256810485E+00
    0.99992090513793308038E+00
    0.99996784943628558295E+00
    0.99997494601712055839E+00
    0.99998947600385557077E+00
    0.99999037204445673233E+00
    0.99997842265548619878E+00
    0.99997729745433905357E+00
    0.99995575772535327808E+00
    0.99995354436167538381E+00
    0.99929767889798015723E+00
    0.99907125420579312447E+00
    0.99802448055614845224E+00
    0.99802474924474238183E+00
    0.99907118066577327298E+00
    0.99929735962238097624E+00
    0.99969980229454369347E+00
    0.99973042482524576702E+00
    0.99988695337906707827E+00
    0.99988710971249195048E+00
    0.99973057122626518556E+00
    0.99969989610683462899E+00
    0.99950057302765804579E+00
    0.99950055505652690702E+00
    0.99999679823199172368E+00
    0.99999735434524317235E+00
    0.99999527503816609819E+00
    0.99999605163282723197E+00
    0.99999621706152941325E+00
    0.99999404732691021813E+00
    0.99999629831478908937E+00
    0.99999572213115350827E+00
    0.99999604327161206729E+00
    0.99999461244398135662E+00
    0.99999701517203498646E+00
    0.99999740028238615075E+00
    0.99999631552317203020E+00
    0.99999576793092204152E+00
    0.99999130430116967005E+00
    0.99999329572962736279E+00
    0.99998781046750151447E+00
    0.99999133380828941764E+00
    0.99999418517573956944E+00
    0.99999325327714061462E+00
    0.99999591901418860562E+00
    0.99999515625226387261E+00
    0.99999571153778255006E+00
    0.99999414234832140203E+00
    0.99999591247122787685E+00
    0.99999529064466574635E+00
    0.99999454802572929069E+00
    0.99999431864792021063E+00
    0.99996015666737692040E+00
    0.99996300402084004055E+00
    0.99992580967777522361E+00
    0.99994340635724932032E+00
    0.99997530010536028744E+00
    0.99998515619953032285E+00
    0.99999305201256494247E+00
    0.99999273786067377490E+00
    0.99999563967531479580E+00
    0.99999515138532779623E+00
    0.99998967996714849260E+00
    0.99998367246115060780E+00
    0.99998219681627864563E+00
    0.99998432964420824742E+00
    0.99982865587107694338E+00
    0.99985817293508461034E+00
    0.99974290679453448050E+00
    0.99981839580608755647E+00
    0.99991859636296021030E+00
    0.99995681005908076955E+00
    0.99998000224379213208E+00
    0.99997448818409839788E+00
    0.99998653441173857015E+00
    0.99998231636689360879E+00
    0.99995579430115877351E+00
    0.99992684277676424642E+00
    0.99993388386372095145E+00
    0.99994485930956134023E+00
    0.99997887416981290354E+00
    0.99998533200530281828E+00
    0.99997535090035727379E+00
    0.99998416476409157649E+00
    0.99999095094047019128E+00
    0.99999190374299640194E+00
    0.99999518109277352185E+00
    0.99999411909610402827E+00
    0.99999518493816152986E+00
    0.99999334720976007507E+00
    0.99999317559003730871E+00
    0.99998988256964360666E+00
    0.99999106948195382039E+00
    0.99999169581310620725E+00
    0.99996432746197638775E+00
    0.99997774417973217531E+00
    0.99996624037090942050E+00
    0.99997979525237312703E+00
    0.99998875576798806897E+00
    0.99999112091855169027E+00
    0.99999459127430201377E+00
    0.99999307801948345009E+00
    0.99999434316406410339E+00
    0.99999204263773067147E+00
    0.99998985232947545931E+00
    0.99998268136883117219E+00
    0.99998766997027399572E+00
    0.99998935094592367179E+00
    0.99952497614647417556E+00
    0.99965071269195238113E+00
    0.99942950398751828622E+00
    0.99962505992497374674E+00
    0.99982633919415897505E+00
    0.99991505764742105722E+00
    0.99995845416536355277E+00
    0.99993944016579738854E+00
    0.99996617017230715607E+00
    0.99995100206777265406E+00
    0.99987737937649168174E+00
    0.99978362915691842971E+00
    0.99983674174541758983E+00
    0.99986981314507161756E+00
    0.99916018778766724218E+00
    0.99944897997060144768E+00
    0.99919517341701624691E+00
    0.99950579358250790651E+00
    0.99976277407702784927E+00
    0.99989169406288269659E+00
    0.99994291496269471775E+00
    0.99990675563516495661E+00
    0.99994227253552536716E+00
    0.99990975853122954220E+00
    0.99978142171828721096E+00
    0.99958876347087310954E+00
    0.99973989946067520762E+00
    0.99980110318044979056E+00
    0.99941072395125862826E+00
    0.99939754642586808853E+00
    0.99883015611085412822E+00
    0.99903841072389309996E+00
    0.99955458227215310263E+00
    0.99972472976716075799E+00
    0.99987871088358093452E+00
    0.99986587832408058141E+00
    0.99993885529588599770E+00
    0.99992799114904984403E+00
    0.99981893113728192990E+00
    0.99974989638527322899E+00
    0.99970115577745632951E+00
    0.99972955894280746136E+00
    0.99723864067816414547E+00
    0.99754921508181604306E+00
    0.99569678269169070717E+00
    0.99674533916731300476E+00
    0.99844068710102051867E+00
    0.99911259105611094355E+00
    0.99957964981428726325E+00
    0.99947513261442344490E+00
    0.99973561561756107974E+00
    0.99966094987390619053E+00
    0.99917152631310635069E+00
    0.99875288843511444981E+00
    0.99877762649930146299E+00
    0.99894513143700758295E+00
    0.99275171248037064053E+00
    0.99189642639581654393E+00
    0.98256912064128121287E+00
    0.98624492982814027098E+00
    0.99378316064785943151E+00
    0.99598910337908430623E+00
    0.99818247683726857300E+00
    0.99811397823135938889E+00
    0.99914043702968191596E+00
    0.99905200690230344662E+00
    0.99771241670996946294E+00
    0.99706279264144970220E+00
    0.99605767411208911977E+00
    0.99636258955208967247E+00
    0.95617270264139098135E+00
    0.96432903704997308125E+00
    0.93852827225934687405E+00
    0.95491614156056281448E+00
    0.97781117778363801918E+00
    0.98660503715168923478E+00
    0.99334102951513081337E+00
    0.99210275548247539579E+00
    0.99592653358325944346E+00
    0.99499758281764771883E+00
    0.98807126353435381638E+00
    0.98162294114036918735E+00
    0.98239661334398875603E+00
    0.98480409201548835263E+00
    0.99205330017805049003E+00
    0.99376825675313029684E+00
    0.99018550525761417358E+00
    0.99309287065759133117E+00
    0.99656546055038741638E+00
    0.99818300113791658124E+00
    0.99906987278675796205E+00
    0.99869822275310804471E+00
    0.99926474563947165208E+00
    0.99898187599976806528E+00
    0.99761467742219500643E+00
    0.99612576930200080749E+00
    0.99685310059695064755E+00
    0.99740062345684321610E+00
    0.98569869347852934194E+00
    0.99001428936970969907E+00
    0.98599261979116603616E+00
    0.99079731979901464189E+00
    0.99523870018517934799E+00
    0.99764731040218890268E+00
    0.99869241197802571808E+00
    0.99795397878486491461E+00
    0.99869626350610740673E+00
    0.99805917707868874178E+00
    0.99565647779827715080E+00
    0.99243630180138986407E+00
    0.99488589138794625288E+00
    0.99595086911116337269E+00
    0.90007145274831290571E+00
    0.92101888611315574362E+00
    0.88389673909704513655E+00
    0.91271863283554377499E+00
    0.95280446925294992599E+00
    0.97247324342745822268E+00
    0.98495993321161767753E+00
    0.98020508405849360312E+00
    0.98830531475528327068E+00
    0.98463895282572155843E+00
    0.96672257749128687188E+00
    0.94797746311088104676E+00
    0.95678000371661464651E+00
    0.96333217227629475143E+00
    0.84514032663450366911E+00
    0.88272881229487554222E+00
    0.84676411281823515953E+00
    0.88784427094492635035E+00
    0.93551830746212727430E+00
    0.96433174756274275818E+00
    0.97867863124113785300E+00
    0.96878869431121283906E+00
    0.97898309061649568807E+00
    0.97059395132969883413E+00
    0.94127397081777997023E+00
    0.90617814350096703713E+00
    0.93175578454671248441E+00
    0.94369434661547413334E+00
    0.99999449546938978806E+00
    0.99999608461966649209E+00
    0.99999565401920054164E+00
    0.99999542335648450297E+00
    0.99999722357298292952E+00
    0.99999664964475798445E+00
    0.99999729833707162729E+00
    0.99999674320984399678E+00
    0.99999445094484384899E+00
    0.99999610539094629935E+00
    0.99999575937582363405E+00
    0.99999640899723762910E+00
    0.99999554472595975074E+00
    0.99999605544187109007E+00
    0.99998542260402689674E+00
    0.99997531454279564578E+00
    0.99994302460412520794E+00
    0.99992596089094731848E+00
    0.99996296162621811643E+00
    0.99995999667899893026E+00
    0.99998352701986781277E+00
    0.99998954135492457151E+00
    0.99999509918018447685E+00
    0.99999596516275246483E+00
    0.99999286859816682860E+00
    0.99999310145818576245E+00
    0.99998431828534406485E+00
    0.99998216624221747395E+00
    0.99999364210163732558E+00
    0.99999408030015668469E+00
    0.99999090835442783209E+00
    0.99998794302944349344E+00
    0.99999318872865028407E+00
    0.99999116349533345716E+00
    0.99999512333635010020E+00
    0.99999562230967165011E+00
    0.99999402375861168313E+00
    0.99999582512549878288E+00
    0.99999528320360486777E+00
    0.99999596454500028209E+00
    0.99999416522062389845E+00
    0.99999433971672624377E+00
    0.99995709998934134699E+00
    0.99991861769798395798E+00
    0.99981800876868520689E+00
    0.99974305439234600890E+00
    0.99985813273861379180E+00
    0.99982850579161319793E+00
    0.99992668670070139481E+00
    0.99995566579390826600E+00
    0.99998231129836423481E+00
    0.99998688272556013334E+00
    0.99997463008208498092E+00
    0.99998005452057048270E+00
    0.99994485063428206750E+00
    0.99993385454728089812E+00
    0.99972502698529475129E+00
    0.99955460011174235291E+00
    0.99903801049308249560E+00
    0.99883028603336188045E+00
    0.99939745631607734833E+00
    0.99941053757764453103E+00
    0.99974972209803580903E+00
    0.99981878993297224056E+00
    0.99992798504604707421E+00
    0.99993917658453057573E+00
    0.99986600579555340307E+00
    0.99987877179498807489E+00
    0.99972953430123123741E+00
    0.99970110290112468299E+00
    0.99598941805677254635E+00
    0.99378318771282680988E+00
    0.98624453675492484983E+00
    0.98256925432451114322E+00
    0.99189631400862920962E+00
    0.99275144970786710630E+00
    0.99706265720537046171E+00
    0.99771229421565454931E+00
    0.99905203226635652669E+00
    0.99914076266125073644E+00
    0.99811411077549971882E+00
    0.99818253292493552831E+00
    0.99636256760177455138E+00
    0.99605762035411193889E+00
    0.99911289684704995828E+00
    0.99844070979904564478E+00
    0.99674493967275001882E+00
    0.99569691913993874088E+00
    0.99754916470828869368E+00
    0.99723849205564574216E+00
    0.99875271620619077151E+00
    0.99917139544078581448E+00
    0.99966096584978225703E+00
    0.99973595491966382731E+00
    0.99947526978268719233E+00
    0.99957971176459370355E+00
    0.99894511577912026290E+00
    0.99877758806022720606E+00
    0.98660535470474486353E+00
    0.97781121522163982895E+00
    0.95491576659798360627E+00
    0.93852840856813191106E+00
    0.96432899550326511839E+00
    0.95617257003388989034E+00
    0.98162277322707258698E+00
    0.98807114630371950526E+00
    0.99499762142707270929E+00
    0.99592688442845223040E+00
    0.99210290257981514905E+00
    0.99334109141160553680E+00
    0.98480408739797686835E+00
    0.98239658438606358715E+00
    0.99999229314122639600E+00
    0.99999085924707276085E+00
    0.99998372937184309972E+00
    0.99997547856006341327E+00
    0.99998523562985608404E+00
    0.99997873421559424489E+00
    0.99998968551169697960E+00
    0.99999287697766880978E+00
    0.99999325658691395891E+00
    0.99999533587572397852E+00
    0.99999426298203886176E+00
    0.99999519396152536377E+00
    0.99999158116792619122E+00
    0.99999088934723145972E+00
    0.99991535031229528130E+00
    0.99982636111560219128E+00
    0.99962467007522692874E+00
    0.99942964950988599782E+00
    0.99965067204397417555E+00
    0.99952482935456832269E+00
    0.99978346914568627657E+00
    0.99987725803745164388E+00
    0.99995102107979094708E+00
    0.99996653052758444069E+00
    0.99993958786917425119E+00
    0.99995850608984215846E+00
    0.99986980587848983681E+00
    0.99983671359070758200E+00
    0.99999141353730924831E+00
    0.99998866266548713799E+00
    0.99997937502382883146E+00
    0.99996635317477233773E+00
    0.99997764970370839333E+00
    0.99996418137969511619E+00
    0.99998247203968282371E+00
    0.99998956242815451034E+00
    0.99999203106677625463E+00
    0.99999459932670753393E+00
    0.99999320664210622489E+00
    0.99999454757392802762E+00
    0.99998924730412486195E+00
    0.99998750211874876115E+00
    0.99989162629543137939E+00
    0.99976271075963518697E+00
    0.99950538013447831620E+00
    0.99919526946774950282E+00
    0.99944892709972499301E+00
    0.99916003870897529549E+00
    0.99958860049257836078E+00
    0.99978129806686277803E+00
    0.99990977865038999095E+00
    0.99994262806785516595E+00
    0.99990688517759118703E+00
    0.99994289391891577612E+00
    0.99980107701883880189E+00
    0.99973986247474111444E+00
    0.99818330928493936849E+00
    0.99656548451691218116E+00
    0.99309247029394287498E+00
    0.99018563631355416277E+00
    0.99376820566313261995E+00
    0.99205315290733298017E+00
    0.99612559599624739270E+00
    0.99761455004942545255E+00
    0.99898190206266057611E+00
    0.99926509218672554535E+00
    0.99869836380154786148E+00
    0.99906993489829576394E+00
    0.99740060956673060044E+00
    0.99685306336450496545E+00
    0.97247354960148901792E+00
    0.95280449947824996659E+00
    0.91271825467815348443E+00
    0.88389680708602702541E+00
    0.92101882110044730467E+00
    0.90007131608079249396E+00
    0.94797729760691507028E+00
    0.96672246251285165464E+00
    0.98463899729949100337E+00
    0.98830566388022444979E+00
    0.98020522807489463002E+00
    0.98495999072946460728E+00