# vtk DataFile Version 3.0
LAPLACIEN  2D
ASCII
DATASET UNSTRUCTURED_GRID
 POINTS        1857  float
   3.1250000000000000E-002  0.93750000000000000        0.0000000000000000     
   6.2500000000000000E-002  0.93750000000000000        0.0000000000000000     
   6.2500000000000000E-002  0.96875000000000000        0.0000000000000000     
   1.8749999999999999E-002  0.95625000000000004        0.0000000000000000     
   4.0625000000000001E-002  0.95937499999999998        0.0000000000000000     
   4.3749999999999997E-002  0.98124999999999996        0.0000000000000000     
   2.1874999999999999E-002  0.97812500000000002        0.0000000000000000     
   9.3750000000000000E-002  0.93750000000000000        0.0000000000000000     
  0.12500000000000000       0.93750000000000000        0.0000000000000000     
  0.12500000000000000       0.96875000000000000        0.0000000000000000     
   8.1250000000000003E-002  0.95625000000000004        0.0000000000000000     
  0.10312499999999999       0.95937499999999998        0.0000000000000000     
  0.10625000000000000       0.98124999999999996        0.0000000000000000     
   8.4375000000000006E-002  0.97812500000000002        0.0000000000000000     
   3.1250000000000000E-002  0.87500000000000000        0.0000000000000000     
   6.2500000000000000E-002  0.87500000000000000        0.0000000000000000     
   6.2500000000000000E-002  0.90625000000000000        0.0000000000000000     
   1.8749999999999999E-002  0.89375000000000004        0.0000000000000000     
   4.0625000000000001E-002  0.89687499999999998        0.0000000000000000     
   4.3749999999999997E-002  0.91874999999999996        0.0000000000000000     
   2.1874999999999999E-002  0.91562500000000002        0.0000000000000000     
   9.3750000000000000E-002  0.87500000000000000        0.0000000000000000     
  0.12500000000000000       0.87500000000000000        0.0000000000000000     
  0.12500000000000000       0.90625000000000000        0.0000000000000000     
   8.1250000000000003E-002  0.89375000000000004        0.0000000000000000     
  0.10312499999999999       0.89687499999999998        0.0000000000000000     
  0.10625000000000000       0.91874999999999996        0.0000000000000000     
   8.4375000000000006E-002  0.91562500000000002        0.0000000000000000     
  0.15625000000000000       0.93750000000000000        0.0000000000000000     
  0.18750000000000000       0.93750000000000000        0.0000000000000000     
  0.18750000000000000       0.96875000000000000        0.0000000000000000     
  0.14374999999999999       0.95625000000000004        0.0000000000000000     
  0.16562499999999999       0.95937499999999998        0.0000000000000000     
  0.16875000000000001       0.98124999999999996        0.0000000000000000     
  0.14687500000000001       0.97812500000000002        0.0000000000000000     
  0.21875000000000000       0.93750000000000000        0.0000000000000000     
  0.25000000000000000       0.93750000000000000        0.0000000000000000     
  0.25000000000000000       0.96875000000000000        0.0000000000000000     
  0.20624999999999999       0.95625000000000004        0.0000000000000000     
  0.22812499999999999       0.95937499999999998        0.0000000000000000     
  0.23125000000000001       0.98124999999999996        0.0000000000000000     
  0.20937500000000001       0.97812500000000002        0.0000000000000000     
  0.15625000000000000       0.87500000000000000        0.0000000000000000     
  0.18750000000000000       0.87500000000000000        0.0000000000000000     
  0.18750000000000000       0.90625000000000000        0.0000000000000000     
  0.14374999999999999       0.89375000000000004        0.0000000000000000     
  0.16562499999999999       0.89687499999999998        0.0000000000000000     
  0.16875000000000001       0.91874999999999996        0.0000000000000000     
  0.14687500000000001       0.91562500000000002        0.0000000000000000     
  0.21875000000000000       0.87500000000000000        0.0000000000000000     
  0.25000000000000000       0.87500000000000000        0.0000000000000000     
  0.25000000000000000       0.90625000000000000        0.0000000000000000     
  0.20624999999999999       0.89375000000000004        0.0000000000000000     
  0.22812499999999999       0.89687499999999998        0.0000000000000000     
  0.23125000000000001       0.91874999999999996        0.0000000000000000     
  0.20937500000000001       0.91562500000000002        0.0000000000000000     
   3.1250000000000000E-002  0.81250000000000000        0.0000000000000000     
   6.2500000000000000E-002  0.81250000000000000        0.0000000000000000     
   6.2500000000000000E-002  0.84375000000000000        0.0000000000000000     
   1.8749999999999999E-002  0.83125000000000004        0.0000000000000000     
   4.0625000000000001E-002  0.83437499999999998        0.0000000000000000     
   4.3749999999999997E-002  0.85624999999999996        0.0000000000000000     
   2.1874999999999999E-002  0.85312500000000002        0.0000000000000000     
   9.3750000000000000E-002  0.81250000000000000        0.0000000000000000     
  0.12500000000000000       0.81250000000000000        0.0000000000000000     
  0.12500000000000000       0.84375000000000000        0.0000000000000000     
   8.1250000000000003E-002  0.83125000000000004        0.0000000000000000     
  0.10312499999999999       0.83437499999999998        0.0000000000000000     
  0.10625000000000000       0.85624999999999996        0.0000000000000000     
   8.4375000000000006E-002  0.85312500000000002        0.0000000000000000     
   3.1250000000000000E-002  0.75000000000000000        0.0000000000000000     
   6.2500000000000000E-002  0.75000000000000000        0.0000000000000000     
   6.2500000000000000E-002  0.78125000000000000        0.0000000000000000     
   1.8749999999999999E-002  0.76875000000000004        0.0000000000000000     
   4.0625000000000001E-002  0.77187499999999998        0.0000000000000000     
   4.3749999999999997E-002  0.79374999999999996        0.0000000000000000     
   2.1874999999999999E-002  0.79062500000000002        0.0000000000000000     
   9.3750000000000000E-002  0.75000000000000000        0.0000000000000000     
  0.12500000000000000       0.75000000000000000        0.0000000000000000     
  0.12500000000000000       0.78125000000000000        0.0000000000000000     
   8.1250000000000003E-002  0.76875000000000004        0.0000000000000000     
  0.10312499999999999       0.77187499999999998        0.0000000000000000     
  0.10625000000000000       0.79374999999999996        0.0000000000000000     
   8.4375000000000006E-002  0.79062500000000002        0.0000000000000000     
  0.15625000000000000       0.81250000000000000        0.0000000000000000     
  0.18750000000000000       0.81250000000000000        0.0000000000000000     
  0.18750000000000000       0.84375000000000000        0.0000000000000000     
  0.14374999999999999       0.83125000000000004        0.0000000000000000     
  0.16562499999999999       0.83437499999999998        0.0000000000000000     
  0.16875000000000001       0.85624999999999996        0.0000000000000000     
  0.14687500000000001       0.85312500000000002        0.0000000000000000     
  0.21875000000000000       0.81250000000000000        0.0000000000000000     
  0.25000000000000000       0.81250000000000000        0.0000000000000000     
  0.25000000000000000       0.84375000000000000        0.0000000000000000     
  0.20624999999999999       0.83125000000000004        0.0000000000000000     
  0.22812499999999999       0.83437499999999998        0.0000000000000000     
  0.23125000000000001       0.85624999999999996        0.0000000000000000     
  0.20937500000000001       0.85312500000000002        0.0000000000000000     
  0.15625000000000000       0.75000000000000000        0.0000000000000000     
  0.18750000000000000       0.75000000000000000        0.0000000000000000     
  0.18750000000000000       0.78125000000000000        0.0000000000000000     
  0.14374999999999999       0.76875000000000004        0.0000000000000000     
  0.16562499999999999       0.77187499999999998        0.0000000000000000     
  0.16875000000000001       0.79374999999999996        0.0000000000000000     
  0.14687500000000001       0.79062500000000002        0.0000000000000000     
  0.21875000000000000       0.75000000000000000        0.0000000000000000     
  0.25000000000000000       0.75000000000000000        0.0000000000000000     
  0.25000000000000000       0.78125000000000000        0.0000000000000000     
  0.20624999999999999       0.76875000000000004        0.0000000000000000     
  0.22812499999999999       0.77187499999999998        0.0000000000000000     
  0.23125000000000001       0.79374999999999996        0.0000000000000000     
  0.20937500000000001       0.79062500000000002        0.0000000000000000     
  0.28125000000000000       0.93750000000000000        0.0000000000000000     
  0.31250000000000000       0.93750000000000000        0.0000000000000000     
  0.31250000000000000       0.96875000000000000        0.0000000000000000     
  0.26874999999999999       0.95625000000000004        0.0000000000000000     
  0.29062500000000002       0.95937499999999998        0.0000000000000000     
  0.29375000000000001       0.98124999999999996        0.0000000000000000     
  0.27187499999999998       0.97812500000000002        0.0000000000000000     
  0.34375000000000000       0.93750000000000000        0.0000000000000000     
  0.37500000000000000       0.93750000000000000        0.0000000000000000     
  0.37500000000000000       0.96875000000000000        0.0000000000000000     
  0.33124999999999999       0.95625000000000004        0.0000000000000000     
  0.35312500000000002       0.95937499999999998        0.0000000000000000     
  0.35625000000000001       0.98124999999999996        0.0000000000000000     
[...]
 CELL_DATA        3584
 SCALARS Endothelial_cells float
 LOOKUP_TABLE default
    0.99999901953818381983E+00
    0.99999987650073884904E+00
    0.99999976358410991306E+00
    0.99999992564372308657E+00
    0.99999990526272120039E+00
    0.99999877286983829272E+00
    0.99999983713980478139E+00
    0.99999933534205964758E+00
    0.99999969339469463314E+00
    0.99999983244600343379E+00
    0.99999943517208300658E+00
    0.99999983567327421774E+00
    0.99999928302601559515E+00
    0.99999927798671017776E+00
    0.99999992917771440837E+00
    0.10000001647988914222E+01
    0.99999980709219415953E+00
    0.99999995724977508438E+00
    0.99999996308038330284E+00
    0.99999879760243304272E+00
    0.99999989372998143722E+00
    0.99999942408356967682E+00
    0.99999982770798512277E+00
    0.99999903997949657342E+00
    0.99999999305832298901E+00
    0.99999986394125972566E+00
    0.99999951563321076708E+00
    0.99999932807715108396E+00
    0.99999904280874374329E+00
    0.99999993166442469050E+00
    0.99999982055869429676E+00
    0.99999998615900209664E+00
    0.10000001698732303712E+01
    0.99999981368766677203E+00
    0.99999990162972351992E+00
    0.99999993751733662339E+00
    0.99999887649327912076E+00
    0.99999987890760688725E+00
    0.99999948796676152440E+00
    0.99999988914460058442E+00
    0.99999929995637115709E+00
    0.99999951284785493222E+00
    0.99999995030569899246E+00
    0.10000002228461091214E+01
    0.99999983771706646429E+00
    0.99999999038320297462E+00
    0.10000002347300527283E+01
    0.99999984145863551888E+00
    0.99999994463638774977E+00
    0.10000002207408529298E+01
    0.99999981820312955350E+00
    0.99999999979308473730E+00
    0.10000002443738724711E+01
    0.99999989542133438380E+00
    0.99999970434070284409E+00
    0.99999972378101409376E+00
    0.99999993645143614440E+00
    0.10000001673989624695E+01
    0.99999980776014929518E+00
    0.99999995751623049767E+00
    0.99999996364253307402E+00
    0.99999879782252731886E+00
    0.99999989435815161976E+00
    0.99999942631056826237E+00
    0.99999983403161896156E+00
    0.99999905295441238184E+00
    0.10000000019706540844E+01
    0.99999988222182012443E+00
    0.99999951861981850598E+00
    0.99999932990689333057E+00
    0.99999993647851492806E+00
    0.10000001674055800649E+01
    0.99999980776133978733E+00
    0.99999995751728676385E+00
    0.99999996364386045666E+00
    0.99999879782262457439E+00
    0.99999989435977365559E+00
    0.99999942631659877179E+00
    0.99999983405682824067E+00
    0.99999905303439540205E+00
    0.10000000020093013919E+01
    0.99999988232938230581E+00
    0.99999951862819880244E+00
    0.99999932991122220116E+00
    0.99999995492434468058E+00
    0.10000002247114292420E+01
    0.99999983837481942750E+00
    0.99999999065367406459E+00
    0.10000002353208787831E+01
    0.99999984169172584370E+00
    0.99999994532013192217E+00
    0.10000002232370011068E+01
    0.99999982550293775585E+00
    0.10000000151353660716E+01
    0.10000002533556746620E+01
    0.99999990983078257401E+00
    0.99999970748126942865E+00
    0.99999972573827211608E+00
    0.99999995495117310895E+00
    0.10000002247182930848E+01
    0.99999983837621975180E+00
    0.99999999065413558430E+00
    0.10000002353221124629E+01
    0.99999984169186517668E+00
    0.99999994532126212921E+00
    0.10000002232431768334E+01
    0.99999982552924471246E+00
    0.10000000152190726688E+01
    0.10000002533951264372E+01
    0.99999990993958176588E+00
    0.99999970748986477531E+00
    0.99999972574260231895E+00
    0.99999904299971464905E+00
    0.99999993214191862378E+00
    0.99999982081734928308E+00
    0.99999998667938649888E+00
    0.10000001720554223539E+01
    0.99999981976079799217E+00
    0.99999991968622126137E+00
    0.99999994535385394734E+00
    0.99999888850515972205E+00
    0.99999988470432765730E+00
    0.99999948997893883806E+00
    0.99999988970840136826E+00
    0.99999930152656857363E+00
    0.99999951540563880581E+00
    0.99999995036256295045E+00
    0.10000002232495630583E+01
    0.99999983791037727610E+00
    0.99999999089371360839E+00
    0.10000002368821918619E+01
    0.99999984759112958699E+00
    0.99999996128897161718E+00
    0.10000002285178488659E+01
    0.99999982870300285764E+00
    0.10000000054803581673E+01
    0.10000002463006369968E+01
    0.99999989584350701399E+00
    0.99999970585093578279E+00
    0.99999972629541744595E+00
    0.99999904299996555945E+00
    0.99999993214254201401E+00
    0.99999982081745031337E+00
    0.99999998668022793691E+00
    0.10000001720599218658E+01
    0.99999981977983243286E+00
    0.99999991977858326830E+00
    0.99999994538461989269E+00
    0.99999888857341356907E+00
    0.99999988472558343222E+00
    0.99999948998389753818E+00
    0.99999988970915965059E+00
    0.99999930152970528674E+00
    0.99999951541190745807E+00
    0.99999995036273814364E+00
    0.10000002232500821986E+01
    0.99999983791063729033E+00
    0.99999999089425695153E+00
    0.10000002368863702973E+01
    0.99999984760846394316E+00
    0.99999996136393931589E+00
    0.10000002285393181367E+01
    0.99999982870093984122E+00
    0.10000000054931366122E+01
    0.10000002463043087264E+01
    0.99999989584414461508E+00
    0.99999970585321673600E+00
    0.99999972630061972900E+00
    0.99999995509098849045E+00
    0.10000002251486348470E+01
    0.99999983856930441117E+00
    0.99999999116395832388E+00
    0.10000002374713217179E+01
    0.99999984782348994017E+00
    0.99999996197287666089E+00
    0.10000002309693574176E+01
    0.99999983463719732679E+00
    0.10000000207735659785E+01
    0.10000002553060725052E+01
    0.99999991034339019702E+00
    0.99999970899116830125E+00
    0.99999972825001681720E+00
    0.99999995511803163595E+00
    0.10000002251551911581E+01
    0.99999983857106156115E+00
    0.99999999116452431558E+00
    0.10000002374727148258E+01
    0.99999984782348583234E+00
    0.99999996197438856260E+00
    0.10000002309757571872E+01
    0.99999983466328534742E+00
    0.10000000208569421734E+01
    0.10000002553449258702E+01
    0.99999991045191194416E+00
    0.99999970899961632131E+00
    0.99999972825425154088E+00
    0.99999995509109984582E+00
    0.10000002251490784921E+01
    0.99999983856956242700E+00
    0.99999999116471860461E+00
    0.10000002374752692269E+01
    0.99999984784082018852E+00
    0.99999996204799734834E+00
    0.10000002309949937995E+01
    0.99999983469456288354E+00
    0.10000000207905066496E+01
    0.10000002553097844249E+01
    0.99999991034391344513E+00
    0.99999970899363055388E+00
    0.99999972825521965536E+00
    0.99999995512210493320E+00
    0.10000002251634334538E+01
    0.99999983857222385364E+00
    0.99999999116647786401E+00
    0.10000002374846368447E+01
    0.99999984784485218547E+00
    0.99999996205027130713E+00
    0.10000002310019200369E+01
    0.99999983472078612934E+00
    0.10000000208739356911E+01
    0.10000002553492324253E+01
    0.99999991045340008711E+00
    0.99999970900434287380E+00
    0.99999972826183169961E+00
    0.99999993647899132476E+00
    0.10000001674058021095E+01
    0.99999980776182462172E+00
    0.99999995751739911842E+00
    0.99999996364414334149E+00
    0.99999879782264289307E+00
    0.99999989436013536626E+00
    0.99999942631722116282E+00
    0.99999983405733416930E+00
    0.99999905303009206659E+00
    0.10000000020094406139E+01
    0.99999988233025782769E+00
    0.99999951862864289165E+00
    0.99999932991122253423E+00
    0.99999993647897711391E+00
    0.10000001674059173506E+01
    0.99999980776181940367E+00
    0.99999995751735537564E+00
    0.99999996364418008987E+00
    0.99999879782272382833E+00
    0.99999989436014491417E+00
    0.99999942631719873631E+00
    0.99999983405738879227E+00
    0.99999905303007308177E+00
    0.10000000020094039765E+01
    0.99999988233040060237E+00
    0.99999951862848990292E+00
    0.99999932991130424664E+00
    0.99999995495199223150E+00
    0.10000002247184340831E+01
    0.99999983837656403196E+00
    0.99999999065486544492E+00
    0.10000002353222881002E+01
    0.99999984169163746994E+00
    0.99999994532147784554E+00
    0.10000002232437237293E+01
    0.99999982552952115800E+00
    0.10000000152141492737E+01
    0.10000002533950194117E+01
    0.99999990993990761634E+00
    0.99999970749009581272E+00
    0.99999972574313977791E+00
    0.99999995495210802776E+00
    0.10000002247184978099E+01
    0.99999983837657702157E+00
    0.99999999065486433469E+00
    0.10000002353222530171E+01
    0.99999984169164157777E+00
    0.99999994532152858273E+00
    0.10000002232435718508E+01
    0.99999982552960708926E+00
    0.10000000152141363952E+01
    0.10000002533950154149E+01
    0.99999990994022214252E+00
    0.99999970749031497075E+00
    0.99999972574301276840E+00
    0.99999993647895712989E+00
    0.10000001674058993650E+01
    0.99999980776182950670E+00
    0.99999995751736692196E+00
    0.99999996364420074002E+00
    0.99999879782264422534E+00
    0.99999989436015734867E+00
    0.99999942631716198793E+00
    0.99999983405741088571E+00
    0.99999905303005343082E+00
    0.10000000020093997577E+01
    0.99999988233037850893E+00
    0.99999951862850877671E+00
    0.99999932991129114601E+00
    0.99999993647893981041E+00
    0.10000001674058149881E+01
    0.99999980776169983265E+00
    0.99999995751719639170E+00
    0.99999996364392029768E+00
    0.99999879782213996204E+00
    0.99999989436003189347E+00
    0.99999942631716398633E+00
    0.99999983405739945042E+00
    0.99999905303001168644E+00
    0.10000000020093799957E+01
    0.99999988233036796181E+00
    0.99999951862849056905E+00
    0.99999932991122875148E+00
    0.99999995495215643349E+00
    0.10000002247184835991E+01
    0.99999983837657191454E+00
    0.99999999065497868767E+00
    0.10000002353221786322E+01
    0.99999984169163136372E+00
    0.99999994532148184234E+00
    0.10000002232435878380E+01
    0.99999982552963284643E+00
    0.10000000152140617882E+01
    0.10000002533950784755E+01
    0.99999990994024057223E+00
    0.99999970749030209216E+00
    0.99999972574310458384E+00
    0.99999995495214211161E+00
    0.10000002247184256454E+01
    0.99999983837621353455E+00
    0.99999999065469713511E+00
    0.10000002353219004103E+01
    0.99999984169158417924E+00
    0.99999994532147928883E+00
    0.10000002232435079019E+01
    0.99999982552955302140E+00
    0.10000000152140910981E+01
    0.10000002533950436145E+01
    0.99999990994025289570E+00
    0.99999970749011857230E+00
    0.99999972574296680516E+00
    0.99999995512092454408E+00
    0.10000002251568924638E+01
    0.99999983857557916966E+00
    0.99999999116659521459E+00
    0.10000002374730463384E+01
    0.99999984782369966130E+00
    0.99999996197459339875E+00
    0.10000002309761482078E+01
    0.99999983466397812659E+00
    0.10000000208520480882E+01
    0.10000002553450677567E+01
    0.99999991045291958258E+00
    0.99999970900032542076E+00
    0.99999972825452787539E+00
    0.99999995513059669605E+00
    0.10000002251605957238E+01
    0.99999983858316821017E+00
    0.99999999116856297388E+00
    0.10000002374736078892E+01
    0.99999984782376372117E+00
    0.99999996197465823577E+00
    0.10000002309762148212E+01
    0.99999983466372288632E+00
    0.10000000208520622991E+01
    0.10000002553455740184E+01
    0.99999991045494662778E+00
    0.99999970900112000738E+00
    0.99999972825494021222E+00
    0.99999993097074812987E+00
    0.10000001924344272819E+01
    0.99999901747767583338E+00
    0.99999993356951843992E+00
    0.10000002356553365779E+01
    0.99999984783757578377E+00
    0.99999996206214991634E+00
    0.10000002310191189459E+01
    0.99999983472593378941E+00
    0.10000000208760611020E+01
    0.10000002553370381797E+01
    0.99999990983288966628E+00
    0.99999970799811344069E+00
    0.99999972819969884519E+00
    0.99999026771479615494E+00
    0.99999941189819419041E+00
    0.99999034814821896600E+00
    0.99999949690895351129E+00
    0.10000002188528251956E+01
    0.99999984748598391704E+00
    0.99999996207218433408E+00
    0.10000002309907687348E+01
    0.99999983474077047685E+00
    0.10000000206381050027E+01
    0.10000002418355746769E+01
    0.99999954965991599831E+00
    0.99999967874041439941E+00
    0.99999972551297511281E+00
    0.99999995513505612887E+00
    0.10000002251615860427E+01
    0.99999983858247276647E+00
    0.99999999116865934123E+00
    0.10000002374736887134E+01
    0.99999984782371809100E+00
    0.99999996197460916392E+00
    0.10000002309762767716E+01
    0.99999983466373310037E+00
    0.10000000208520367639E+01
    0.10000002553459168553E+01
    0.99999991045641534182E+00
    0.99999970900132884033E+00
    0.99999972825511906915E+00
    0.99999995513023687277E+00
    0.10000002251606452397E+01
    0.99999983857814200849E+00
    0.99999999116784099584E+00
    0.10000002374732688271E+01
    0.99999984782341311274E+00
    0.99999996197439333656E+00
    0.10000002309762259234E+01
    0.99999983466373154606E+00
    0.10000000208520400946E+01
    0.10000002553458944288E+01
    0.99999991045609726292E+00
    0.99999970900122570061E+00
    0.99999972825508465224E+00
    0.99998872239028124831E+00
    0.99999935097376779769E+00
    0.99999031870701471370E+00
    0.99999949256968490019E+00
    0.10000002180982316968E+01
    0.99999984740283653917E+00
    0.99999996206489616402E+00
    0.10000002309744111528E+01
    0.99999983474886910972E+00
    0.10000000205949637344E+01
    0.10000002390955051723E+01
    0.99999946636082126528E+00
    0.99999967627655717006E+00
    0.99999972519975810492E+00
    0.99998865779562473577E+00
    0.99999934047796257275E+00
    0.99999025761837723181E+00
    0.99999948716992037578E+00
    0.10000002164475465527E+01
    0.99999984723874246750E+00
    0.99999996204120089605E+00
    0.10000002308683484387E+01
    0.99999983472466213996E+00
    0.10000000204677161886E+01
    0.10000002376201901910E+01
    0.99999945688158753399E+00
    0.99999967385207666482E+00
    0.99999972437271844594E+00
    0.99999904300000874713E+00
    0.99999993214255544771E+00
    0.99999982081746108253E+00
    0.99999998668022582748E+00
    0.10000001720598405974E+01
    0.99999981977985696879E+00
    0.99999991977866453663E+00
    0.99999994538468661709E+00
    0.99999888857346164173E+00
    0.99999988472560596975E+00
    0.99999948998386367638E+00
    0.99999988970914466258E+00
    0.99999930152967542174E+00
    0.99999951541197595883E+00
    0.99999995036270672433E+00
    0.10000002232501152832E+01
    0.99999983791061120009E+00
    0.99999999089423907694E+00
    0.10000002368863576407E+01
    0.99999984760846316600E+00
    0.99999996136396884783E+00
    0.10000002285392877166E+01
    0.99999982870105152966E+00
    0.10000000054929494286E+01
    0.10000002463043213830E+01
    0.99999989584418513822E+00
    0.99999970585320130390E+00
    0.99999972630064393186E+00
    0.99999904300001429824E+00
    0.99999993214259574881E+00
    0.99999982081744143159E+00
    0.99999998668024747683E+00
    0.10000001720599234201E+01
    0.99999981977989427229E+00
    0.99999991977866198312E+00
    0.99999994538469516581E+00
    0.99999888857345009541E+00
    0.99999988472558687391E+00
    0.99999948998383625387E+00
    0.99999988970917808029E+00
    0.99999930152963878438E+00
    0.99999951541197562577E+00
    0.99999995036270894477E+00
    0.10000002232500981858E+01
    0.99999983791057578397E+00
    0.99999999089427071830E+00
    0.10000002368864351343E+01
    0.99999984760849458532E+00
    0.99999996136395985502E+00
    0.10000002285394131718E+01
    0.99999982870100578847E+00
    0.10000000054929560900E+01
    0.10000002463043062839E+01
    0.99999989584411519417E+00
    0.99999970585319453154E+00
    0.99999972630065248058E+00
    0.99999995509118200232E+00
    0.10000002251493782524E+01
    0.99999983857111274244E+00
    0.99999999116885840422E+00
    0.10000002374763514723E+01
    0.99999984784271200855E+00
    0.99999996204845487124E+00
    0.10000002309951616652E+01
    0.99999983469460340668E+00
    0.10000000207905279659E+01
    0.10000002553098532587E+01
    0.99999991034391244593E+00
    0.99999970899363355148E+00
    0.99999972825544691801E+00
    0.99999995511250183711E+00
    0.10000002233266802598E+01
    0.99999978094767727477E+00
    0.99999917003222094092E+00
    0.10000002047431366670E+01
    0.99999982368755235829E+00
    0.99999996142827174417E+00
    0.10000002309886033558E+01
    0.99999983472725761935E+00
    0.10000000208786794520E+01
    0.10000002553655793491E+01
    0.99999991046442471276E+00
    0.99999970893918821435E+00
    0.99999972725124908202E+00
    0.99999995509127592719E+00
    0.10000002251497746020E+01
    0.99999983857327778836E+00
    0.99999999117590576692E+00
    0.10000002374800789351E+01
    0.99999984785224493855E+00
    0.99999996205057861687E+00
    0.10000002309957405355E+01
    0.99999983469471276365E+00
    0.10000000207905308525E+01
    0.10000002553099365254E+01
    0.99999991034396529255E+00
    0.99999970899421497528E+00
    0.99999972825614458216E+00
    0.99999995475944836176E+00
    0.10000002065162760800E+01
    0.99999934427363690315E+00
    0.99999050056540772502E+00
    0.99999942415367570892E+00
    0.99999016027399256767E+00
    0.99999960121574205107E+00
    0.10000002174730966420E+01
    0.99999983448629847782E+00
    0.10000000208925790002E+01
    0.10000002553346343248E+01
    0.99999991047373160136E+00
    0.99999970624388656582E+00
    0.99999969797792342963E+00
    0.99999904299988906509E+00
    0.99999993214256155394E+00
    0.99999982081743432616E+00
    0.99999998668021450321E+00
    0.10000001720598601374E+01
    0.99999981977989527149E+00
    0.99999991977873492477E+00
    0.99999994538463865545E+00
    0.99999888857346697080E+00
    0.99999988472558709596E+00
    0.99999948998375975950E+00
    0.99999988970915720810E+00
    0.99999930152966198804E+00
    0.99999951541197862337E+00
    0.99999995036270206139E+00
    0.10000002232500366794E+01
    0.99999983791054580795E+00
    0.99999999089427160648E+00
    0.10000002368864042701E+01
    0.99999984760850491039E+00
    0.99999996136397151236E+00
    0.10000002285393763124E+01
    0.99999982870101067345E+00
    0.10000000054929589766E+01
    0.10000002463043222711E+01
    0.99999989584414095134E+00
    0.99999970585323194605E+00
    0.99999972630060507406E+00
    0.99999904299970898691E+00
    0.99999993214229265792E+00
    0.99999982081721450200E+00
    0.99999998668004608238E+00
    0.10000001720600626420E+01
    0.99999981977988061654E+00
    0.99999991977867586090E+00
    0.99999994538461256521E+00
    0.99999888857347174476E+00
    0.99999988472557488350E+00
    0.99999948998373355824E+00
    0.99999988970907416341E+00
    0.99999930152953830920E+00
    0.99999951541183451642E+00
    0.99999995036257238734E+00
    0.10000002232502156474E+01
    0.99999983791068869365E+00
    0.99999999089411162334E+00
    0.10000002368864202573E+01
    0.99999984760850335608E+00
    0.99999996136397850677E+00
    0.10000002285393596591E+01
    0.99999982870099202170E+00
    0.10000000054931406090E+01
    0.10000002463042270140E+01
    0.99999989584402526610E+00
    0.99999970585325115291E+00
    0.99999972630063349577E+00
    0.99999995509122940884E+00
    0.10000002251498771866E+01
    0.99999983857320240421E+00
    0.99999999117517435199E+00
    0.10000002374809402461E+01
    0.99999984785666007348E+00
    0.99999996205207186684E+00
    0.10000002309961082414E+01
    0.99999983469475195452E+00
    0.10000000207905295202E+01
    0.10000002553099718305E+01
    0.99999991034398749701E+00
    0.99999970899414591941E+00
    0.99999972825642724494E+00
    0.99999995467681868089E+00
    0.10000002057613359696E+01
    0.99999933842051247357E+00
    0.99999047762655601801E+00
    0.99999936298437419602E+00
    0.99998860952687085302E+00
    0.99999951784930429799E+00
    0.10000002147344340120E+01
    0.99999983444229945118E+00
    0.10000000209005401874E+01
    0.10000002553183877652E+01
    0.99999991046686320662E+00