# vtk DataFile Version 3.0
LAPLACIEN  2D
ASCII
DATASET UNSTRUCTURED_GRID
 POINTS        1857  float
   3.1250000000000000E-002  0.93750000000000000        0.0000000000000000     
   6.2500000000000000E-002  0.93750000000000000        0.0000000000000000     
   6.2500000000000000E-002  0.96875000000000000        0.0000000000000000     
   1.8749999999999999E-002  0.95625000000000004        0.0000000000000000     
   4.0625000000000001E-002  0.95937499999999998        0.0000000000000000     
   4.3749999999999997E-002  0.98124999999999996        0.0000000000000000     
   2.1874999999999999E-002  0.97812500000000002        0.0000000000000000     
   9.3750000000000000E-002  0.93750000000000000        0.0000000000000000     
  0.12500000000000000       0.93750000000000000        0.0000000000000000     
  0.12500000000000000       0.96875000000000000        0.0000000000000000     
   8.1250000000000003E-002  0.95625000000000004        0.0000000000000000     
  0.10312499999999999       0.95937499999999998        0.0000000000000000     
  0.10625000000000000       0.98124999999999996        0.0000000000000000     
   8.4375000000000006E-002  0.97812500000000002        0.0000000000000000     
   3.1250000000000000E-002  0.87500000000000000        0.0000000000000000     
   6.2500000000000000E-002  0.87500000000000000        0.0000000000000000     
   6.2500000000000000E-002  0.90625000000000000        0.0000000000000000     
   1.8749999999999999E-002  0.89375000000000004        0.0000000000000000     
   4.0625000000000001E-002  0.89687499999999998        0.0000000000000000     
   4.3749999999999997E-002  0.91874999999999996        0.0000000000000000     
   2.1874999999999999E-002  0.91562500000000002        0.0000000000000000     
   9.3750000000000000E-002  0.87500000000000000        0.0000000000000000     
  0.12500000000000000       0.87500000000000000        0.0000000000000000     
  0.12500000000000000       0.90625000000000000        0.0000000000000000     
   8.1250000000000003E-002  0.89375000000000004        0.0000000000000000     
  0.10312499999999999       0.89687499999999998        0.0000000000000000     
  0.10625000000000000       0.91874999999999996        0.0000000000000000     
   8.4375000000000006E-002  0.91562500000000002        0.0000000000000000     
  0.15625000000000000       0.93750000000000000        0.0000000000000000     
  0.18750000000000000       0.93750000000000000        0.0000000000000000     
  0.18750000000000000       0.96875000000000000        0.0000000000000000     
  0.14374999999999999       0.95625000000000004        0.0000000000000000     
  0.16562499999999999       0.95937499999999998        0.0000000000000000     
  0.16875000000000001       0.98124999999999996        0.0000000000000000     
  0.14687500000000001       0.97812500000000002        0.0000000000000000     
  0.21875000000000000       0.93750000000000000        0.0000000000000000     
  0.25000000000000000       0.93750000000000000        0.0000000000000000     
  0.25000000000000000       0.96875000000000000        0.0000000000000000     
  0.20624999999999999       0.95625000000000004        0.0000000000000000     
  0.22812499999999999       0.95937499999999998        0.0000000000000000     
  0.23125000000000001       0.98124999999999996        0.0000000000000000     
  0.20937500000000001       0.97812500000000002        0.0000000000000000     
  0.15625000000000000       0.87500000000000000        0.0000000000000000     
  0.18750000000000000       0.87500000000000000        0.0000000000000000     
  0.18750000000000000       0.90625000000000000        0.0000000000000000     
  0.14374999999999999       0.89375000000000004        0.0000000000000000     
  0.16562499999999999       0.89687499999999998        0.0000000000000000     
  0.16875000000000001       0.91874999999999996        0.0000000000000000     
  0.14687500000000001       0.91562500000000002        0.0000000000000000     
  0.21875000000000000       0.87500000000000000        0.0000000000000000     
  0.25000000000000000       0.87500000000000000        0.0000000000000000     
  0.25000000000000000       0.90625000000000000        0.0000000000000000     
  0.20624999999999999       0.89375000000000004        0.0000000000000000     
  0.22812499999999999       0.89687499999999998        0.0000000000000000     
  0.23125000000000001       0.91874999999999996        0.0000000000000000     
  0.20937500000000001       0.91562500000000002        0.0000000000000000     
   3.1250000000000000E-002  0.81250000000000000        0.0000000000000000     
   6.2500000000000000E-002  0.81250000000000000        0.0000000000000000     
   6.2500000000000000E-002  0.84375000000000000        0.0000000000000000     
   1.8749999999999999E-002  0.83125000000000004        0.0000000000000000     
   4.0625000000000001E-002  0.83437499999999998        0.0000000000000000     
   4.3749999999999997E-002  0.85624999999999996        0.0000000000000000     
   2.1874999999999999E-002  0.85312500000000002        0.0000000000000000     
   9.3750000000000000E-002  0.81250000000000000        0.0000000000000000     
  0.12500000000000000       0.81250000000000000        0.0000000000000000     
  0.12500000000000000       0.84375000000000000        0.0000000000000000     
   8.1250000000000003E-002  0.83125000000000004        0.0000000000000000     
  0.10312499999999999       0.83437499999999998        0.0000000000000000     
  0.10625000000000000       0.85624999999999996        0.0000000000000000     
   8.4375000000000006E-002  0.85312500000000002        0.0000000000000000     
   3.1250000000000000E-002  0.75000000000000000        0.0000000000000000     
   6.2500000000000000E-002  0.75000000000000000        0.0000000000000000     
   6.2500000000000000E-002  0.78125000000000000        0.0000000000000000     
   1.8749999999999999E-002  0.76875000000000004        0.0000000000000000     
   4.0625000000000001E-002  0.77187499999999998        0.0000000000000000     
   4.3749999999999997E-002  0.79374999999999996        0.0000000000000000     
   2.1874999999999999E-002  0.79062500000000002        0.0000000000000000     
   9.3750000000000000E-002  0.75000000000000000        0.0000000000000000     
  0.12500000000000000       0.75000000000000000        0.0000000000000000     
  0.12500000000000000       0.78125000000000000        0.0000000000000000     
   8.1250000000000003E-002  0.76875000000000004        0.0000000000000000     
  0.10312499999999999       0.77187499999999998        0.0000000000000000     
  0.10625000000000000       0.79374999999999996        0.0000000000000000     
   8.4375000000000006E-002  0.79062500000000002        0.0000000000000000     
  0.15625000000000000       0.81250000000000000        0.0000000000000000     
  0.18750000000000000       0.81250000000000000        0.0000000000000000     
  0.18750000000000000       0.84375000000000000        0.0000000000000000     
  0.14374999999999999       0.83125000000000004        0.0000000000000000     
  0.16562499999999999       0.83437499999999998        0.0000000000000000     
  0.16875000000000001       0.85624999999999996        0.0000000000000000     
  0.14687500000000001       0.85312500000000002        0.0000000000000000     
  0.21875000000000000       0.81250000000000000        0.0000000000000000     
  0.25000000000000000       0.81250000000000000        0.0000000000000000     
  0.25000000000000000       0.84375000000000000        0.0000000000000000     
  0.20624999999999999       0.83125000000000004        0.0000000000000000     
  0.22812499999999999       0.83437499999999998        0.0000000000000000     
  0.23125000000000001       0.85624999999999996        0.0000000000000000     
  0.20937500000000001       0.85312500000000002        0.0000000000000000     
  0.15625000000000000       0.75000000000000000        0.0000000000000000     
  0.18750000000000000       0.75000000000000000        0.0000000000000000     
  0.18750000000000000       0.78125000000000000        0.0000000000000000     
  0.14374999999999999       0.76875000000000004        0.0000000000000000     
  0.16562499999999999       0.77187499999999998        0.0000000000000000     
  0.16875000000000001       0.79374999999999996        0.0000000000000000     
  0.14687500000000001       0.79062500000000002        0.0000000000000000     
  0.21875000000000000       0.75000000000000000        0.0000000000000000     
  0.25000000000000000       0.75000000000000000        0.0000000000000000     
  0.25000000000000000       0.78125000000000000        0.0000000000000000     
  0.20624999999999999       0.76875000000000004        0.0000000000000000     
  0.22812499999999999       0.77187499999999998        0.0000000000000000     
  0.23125000000000001       0.79374999999999996        0.0000000000000000     
  0.20937500000000001       0.79062500000000002        0.0000000000000000     
  0.28125000000000000       0.93750000000000000        0.0000000000000000     
  0.31250000000000000       0.93750000000000000        0.0000000000000000     
  0.31250000000000000       0.96875000000000000        0.0000000000000000     
  0.26874999999999999       0.95625000000000004        0.0000000000000000     
  0.29062500000000002       0.95937499999999998        0.0000000000000000     
  0.29375000000000001       0.98124999999999996        0.0000000000000000     
  0.27187499999999998       0.97812500000000002        0.0000000000000000     
  0.34375000000000000       0.93750000000000000        0.0000000000000000     
  0.37500000000000000       0.93750000000000000        0.0000000000000000     
  0.37500000000000000       0.96875000000000000        0.0000000000000000     
  0.33124999999999999       0.95625000000000004        0.0000000000000000     
  0.35312500000000002       0.95937499999999998        0.0000000000000000     
  0.35625000000000001       0.98124999999999996        0.0000000000000000     
[...]
 CELL_DATA        3584
 SCALARS Endothelial_cells float
 LOOKUP_TABLE default
    0.99999368337450345035E+00
    0.99999557821899054399E+00
    0.99999672204491985017E+00
    0.99999682225876573849E+00
    0.99999562313047929418E+00
    0.99999360867895081828E+00
    0.99999530265410296881E+00
    0.99999464848331254263E+00
    0.99999573596172042222E+00
    0.99999602772124973615E+00
    0.99999492105793341690E+00
    0.99999537182594644413E+00
    0.99999440983205467592E+00
    0.99999437609475916311E+00
    0.99999774229964943917E+00
    0.99999817272840285654E+00
    0.99999767131128713959E+00
    0.99999737490114803951E+00
    0.99999616998836560189E+00
    0.99999359243434626787E+00
    0.99999555126701500374E+00
    0.99999500356759285502E+00
    0.99999530301622407968E+00
    0.99999403811574216761E+00
    0.99999634318339514216E+00
    0.99999695938565147380E+00
    0.99999619894860669600E+00
    0.99999541078231612978E+00
    0.99999396371919668791E+00
    0.99999616832760696017E+00
    0.99999722401352353351E+00
    0.99999793319173735373E+00
    0.99999830676803724838E+00
    0.99999796070468871534E+00
    0.99999715331586014333E+00
    0.99999620363108465693E+00
    0.99999360911190127155E+00
    0.99999532098467114327E+00
    0.99999514700761138464E+00
    0.99999567256461507903E+00
    0.99999539536472914492E+00
    0.99999619949233009564E+00
    0.99999806861613249609E+00
    0.99999850914806187596E+00
    0.99999756988318522222E+00
    0.99999783296054578496E+00
    0.99999850464743411660E+00
    0.99999788462837013725E+00
    0.99999799907631525819E+00
    0.99999844149967476170E+00
    0.99999786081362074253E+00
    0.99999834049914726464E+00
    0.99999868931082813717E+00
    0.99999799857892124333E+00
    0.99999775150683700708E+00
    0.99999773290072369036E+00
    0.99999782381856061608E+00
    0.99999815816843096172E+00
    0.99999741404116537780E+00
    0.99999721734730395717E+00
    0.99999633043300184543E+00
    0.99999359995766867737E+00
    0.99999564869779788978E+00
    0.99999524693457808588E+00
    0.99999538145089350571E+00
    0.99999397914650889341E+00
    0.99999659293602916055E+00
    0.99999731360476962205E+00
    0.99999644368090345736E+00
    0.99999583673166825282E+00
    0.99999662164575919832E+00
    0.99999689185169926553E+00
    0.99999502031086806575E+00
    0.99999543394624090809E+00
    0.99999550518062962912E+00
    0.99999327581631836104E+00
    0.99999556744425643906E+00
    0.99999501899798248772E+00
    0.99999529465482528412E+00
    0.99999388986060433471E+00
    0.99999639666562001317E+00
    0.99999695621099371490E+00
    0.99999574500297916391E+00
    0.99999512667758949647E+00
    0.99999587295989766922E+00
    0.99999595172436250845E+00
    0.99999179350296396596E+00
    0.99999257220031867455E+00
    0.99999625480857512461E+00
    0.99999630082608059745E+00
    0.99999743215815595221E+00
    0.99999820527096061618E+00
    0.99999776877540913489E+00
    0.99999803159969036237E+00
    0.99999836882259862669E+00
    0.99999745760009972617E+00
    0.99999678502633770893E+00
    0.99999681877795643103E+00
    0.99997650304413621125E+00
    0.99997562009482943157E+00
    0.99995113850068373385E+00
    0.99995848748724824873E+00
    0.99998076783170541937E+00
    0.99998653766650236197E+00
    0.99999327897394285625E+00
    0.99999379644847541382E+00
    0.99999589053084791956E+00
    0.99999585449196681797E+00
    0.99999276734888409290E+00
    0.99998968395778276008E+00
    0.99998701588559968378E+00
    0.99998788791705683909E+00
    0.99999395354663211943E+00
    0.99999611603656535230E+00
    0.99999692209071266991E+00
    0.99999764851439165714E+00
    0.99999804813102610712E+00
    0.99999773887419518559E+00
    0.99999730351911741977E+00
    0.99999629768144493447E+00
    0.99999379589504311383E+00
    0.99999544662540484907E+00
    0.99999520413563414145E+00
    0.99999567823607360406E+00
    0.99999537927541370941E+00
    0.99999600383155529126E+00
    0.99999651163322544889E+00
    0.99999626978634137409E+00
    0.99999221969062801474E+00
    0.99999196784608723743E+00
    0.99999590442186381267E+00
    0.99999565412084767679E+00
    0.99999736405130268402E+00
    0.99999826107349032434E+00
    0.99999787732065192891E+00
    0.99999804715390960830E+00
    0.99999829953687047190E+00
    0.99999744672605694884E+00
    0.99999682526689859241E+00
    0.99999678075566633684E+00
    0.99999371410875081967E+00
    0.99999538248473240909E+00
    0.99999502595843103858E+00
    0.99999515748014922156E+00
    0.99999675118316366795E+00
    0.99999644712842095107E+00
    0.99999684973827718260E+00
    0.99999613478274285150E+00
    0.99999373130429480838E+00
    0.99999535340482004209E+00
    0.99999507036311474639E+00
    0.99999566723789568012E+00
    0.99999491308653287724E+00
    0.99999548791173753504E+00
    0.99998680747373791533E+00
    0.99998078592536598919E+00
    0.99995810640190929686E+00
    0.99995128260524035468E+00
    0.99997554316771641858E+00
    0.99997631221044325223E+00
    0.99998953593320483169E+00
    0.99999262574482117305E+00
    0.99999578982262848914E+00
    0.99999617798426221338E+00
    0.99999391483493837995E+00
    0.99999333003345025617E+00
    0.99998787347292572569E+00
    0.99998697686452586719E+00
    0.99997326501225125561E+00
    0.99996608706381140408E+00
    0.99992835388371725802E+00
    0.99992861907129737542E+00
    0.99996602563740577541E+00
    0.99997297278180707902E+00
    0.99998811425879996495E+00
    0.99999005691885300973E+00
    0.99999457771127908678E+00
    0.99999473460991039619E+00
    0.99999019179115022915E+00
    0.99998821256793701817E+00
    0.99998107102746736086E+00
    0.99998105733626385661E+00
    0.99976492952614615106E+00
    0.99972827318467161195E+00
    0.99946383031331476055E+00
    0.99950820249446847843E+00
    0.99976216606192336300E+00
    0.99983175251231737324E+00
    0.99992483860688530228E+00
    0.99992651612373573133E+00
    0.99996616903072688132E+00
    0.99996384116579517531E+00
    0.99991618942126470060E+00
    0.99989671164078730570E+00
    0.99985508945981105278E+00
    0.99986128888469161247E+00
    0.99983205941116048976E+00
    0.99976218947618755717E+00
    0.99950780536322159087E+00
    0.99946396468745901664E+00
    0.99972816122812879769E+00
    0.99976466632068228257E+00
    0.99989657561481004588E+00
    0.99991605937026750706E+00
    0.99996384052300391065E+00
    0.99996646638346575742E+00
    0.99992666915370687075E+00
    0.99992492584164516245E+00
    0.99986126630335692145E+00
    0.99985503378444928746E+00
    0.99829668007284821929E+00
    0.99781115491869010192E+00
    0.99564532747260314771E+00
    0.99564558858909946171E+00
    0.99781106707563516078E+00
    0.99829634086075791366E+00
    0.99921447919476158450E+00
    0.99928580612380579762E+00
    0.99967546953162400580E+00
    0.99967560923711951126E+00
    0.99928594663561665090E+00
    0.99921457290106485694E+00
    0.99875062001509107290E+00
    0.99875059999300530578E+00
    0.99999044271243686666E+00
    0.99999157770499702558E+00
    0.99998483757554301743E+00
    0.99998808028915020518E+00
    0.99999216449100525317E+00
    0.99999154720728955503E+00
    0.99999467401011210566E+00
    0.99999399892008722368E+00
    0.99999472198422334479E+00
    0.99999322113659205868E+00
    0.99999491135698304056E+00
    0.99999451845142806050E+00
    0.99999319412934717377E+00
    0.99999289637055566171E+00
    0.99997013627742137309E+00
    0.99997606886617718125E+00
    0.99995878898945722568E+00
    0.99997062864528607484E+00
    0.99998394506796650649E+00
    0.99998718849536671893E+00
    0.99999179436077068051E+00
    0.99999081374184173310E+00
    0.99999302056970573727E+00
    0.99999126840851637610E+00
    0.99998959556929090109E+00
    0.99998551572491911621E+00
    0.99998586040693093757E+00
    0.99998686407044445890E+00
    0.99987349845374451363E+00
    0.99988063036290719676E+00
    0.99977780418939776741E+00
    0.99982474063252879670E+00
    0.99991781451343308973E+00
    0.99995008222448011903E+00
    0.99997651011111521324E+00
    0.99997354215204892203E+00
    0.99998612506423090185E+00
    0.99998354045275439361E+00
    0.99996207134686720952E+00
    0.99994433415915640051E+00
    0.99994014307547163245E+00
    0.99994694724434973754E+00
    0.99952623401226659006E+00
    0.99959976386199289600E+00
    0.99931799897219208972E+00
    0.99949836046769391373E+00
    0.99975842439163598030E+00
    0.99986498817956970253E+00
    0.99993394173879668330E+00
    0.99991557054149926564E+00
    0.99995463552997543299E+00
    0.99994074196045490410E+00
    0.99985965378428232064E+00
    0.99978058147969306457E+00
    0.99980026624523676837E+00
    0.99983036059572460985E+00
    0.99992982613315861684E+00
    0.99994923245958811098E+00
    0.99991945255456748942E+00
    0.99994659287394072056E+00
    0.99997205539580091838E+00
    0.99998128622024518020E+00
    0.99998777125394999743E+00
    0.99998579449698044019E+00
    0.99998928848580159734E+00
    0.99998659515957788457E+00
    0.99997891013907469482E+00
    0.99996603176151799275E+00
    0.99997301163509033639E+00
    0.99997687011526226186E+00
    0.99988603175843293602E+00
    0.99992526385990365689E+00
    0.99989215593668412385E+00
    0.99993270511061493888E+00
    0.99996440355541194034E+00
    0.99997826448475835015E+00
    0.99998482691937529143E+00
    0.99998113166825641773E+00
    0.99998502066211347739E+00
    0.99998080818685575188E+00
    0.99996698881624646038E+00
    0.99994218650128541270E+00
    0.99996124465104108126E+00
    0.99996839408218352041E+00
    0.99881324316341280056E+00
    0.99909969236296169992E+00
    0.99860286824894850533E+00
    0.99903711874505529700E+00
    0.99952194658194271071E+00
    0.99975016550657525016E+00
    0.99986999824808708848E+00
    0.99981539236169791884E+00
    0.99989204149676336186E+00
    0.99984839023682037240E+00
    0.99964930478607993969E+00
    0.99941561752207075386E+00
    0.99954790600050436034E+00
    0.99963065717452681547E+00
    0.99801826244896940654E+00
    0.99864320014255236746E+00
    0.99809569589093460884E+00
    0.99876585893656266713E+00
    0.99936638826881274422E+00
    0.99968844800235812098E+00
    0.99982607295896774868E+00
    0.99972740853036501374E+00
    0.99982371957282445418E+00
    0.99973596172724543685E+00
    0.99941056239265624317E+00
    0.99895652274262225490E+00
    0.99931199463415065765E+00
    0.99945849968121669438E+00
    0.99854839830258390609E+00
    0.99852185477043076123E+00
    0.99730035246836845619E+00
    0.99773417195301972171E+00
    0.99887842155109640707E+00
    0.99927335020936591814E+00
    0.99965519073265995953E+00
    0.99962100871015679981E+00
    0.99981430871877108313E+00
    0.99978447208105836186E+00
    0.99950098582104140998E+00
    0.99933349214095790192E+00
    0.99921678636992494749E+00
    0.99928381945171240730E+00
    0.99413998653355961643E+00
    0.99475413924224431739E+00
    0.99127281677843570584E+00
    0.99320267939617190578E+00
    0.99653109893129365737E+00
    0.99791394285395706998E+00
    0.99894147342644601384E+00
    0.99870476712336753167E+00
    0.99930052205306307833E+00
    0.99912502710850481513E+00
    0.99803450698307039080E+00
    0.99715115904690965198E+00
    0.99720834115041312451E+00
    0.99755470854860206487E+00
    0.98617240481881474068E+00
    0.98473372052109098274E+00
    0.97014289464036984612E+00
    0.97521188761368449160E+00
    0.98783922695631731781E+00
    0.99176628947284861670E+00
    0.99599361376817141522E+00
    0.99585239767930355814E+00
    0.99796049513633622308E+00
    0.99777206977611743177E+00
    0.99505626341978292704E+00
    0.99383286176817531299E+00
    0.99192859799701049717E+00
    0.99246462130766599508E+00
    0.93292061402933534886E+00
    0.94266195069093861036E+00
    0.90816665921097960990E+00
    0.92846754952496068913E+00
    0.96192792252719971913E+00
    0.97569970716665943566E+00
    0.98709146034554284821E+00
    0.98491543474332798880E+00
    0.99167054369417217963E+00
    0.98997827673234606305E+00
    0.97815441877208064714E+00
    0.96828521506877962555E+00
    0.96902307802751896926E+00
    0.97271412799872536414E+00
    0.98486029607363778648E+00
    0.98786423946118862016E+00
    0.98174722407598968843E+00
    0.98664912166704465957E+00
    0.99294223915831736349E+00
    0.99602691532174880695E+00
    0.99783552150793419777E+00
    0.99706635142840860375E+00
    0.99824096914568205552E+00
    0.99764285241126449133E+00
    0.99490718548217305095E+00
    0.99208262691619863993E+00
    0.99346147951326668757E+00
    0.99449298357890625333E+00
    0.97443712089771450380E+00
    0.98149581047821787827E+00
    0.97494388250296104559E+00
    0.98274652771899384529E+00
    0.99053044366762943440E+00
    0.99498956415203954062E+00
    0.99705783996924080004E+00
    0.99559211838927241800E+00
    0.99705339078032428901E+00
    0.99578684316388976772E+00
    0.99127484700184698152E+00
    0.98555246082366199101E+00
    0.98988674909888529907E+00
    0.99179709834198925833E+00
    0.85976988388265174201E+00
    0.88467169902256193037E+00
    0.84004533352808419266E+00
    0.87337044393599561065E+00
    0.92621226772700981922E+00
    0.95406156048305190698E+00
    0.97329206460820538727E+00
    0.96580881811872509868E+00
    0.97854157272355379860E+00
    0.97257565845041349384E+00
    0.94552471863475673342E+00
    0.91920096517705984773E+00
    0.93138637197293971948E+00
    0.94057972147277446595E+00
    0.79716230177000835244E+00
    0.83907719307701900124E+00
    0.79827414998520063172E+00
    0.84364717826955526458E+00
    0.90345089098044861764E+00
    0.94237234033535766109E+00
    0.96360792796365313251E+00
    0.94894636688993827534E+00
    0.96387994334839266486E+00
    0.95131984211181930267E+00
    0.91089743036671344534E+00
    0.86567574090296428579E+00
    0.89825931071503939407E+00
    0.91386586135155933874E+00
    0.99999190571857665688E+00
    0.99999205446776884276E+00
    0.99998762781857686299E+00
    0.99998494274306148899E+00
    0.99999143809411650263E+00
    0.99999026649038846859E+00
    0.99999432337850191477E+00
    0.99999461074137729888E+00
    0.99999312493666248081E+00
    0.99999485023152157037E+00
    0.99999413939739767443E+00
    0.99999468179998562967E+00
    0.99999274727016473907E+00
    0.99999297837289014002E+00
    0.99995038064899532948E+00
    0.99991784018077023433E+00
    0.99982435241727662945E+00
    0.99977794078964232760E+00
    0.99988057587171352836E+00
    0.99987333664976929537E+00
    0.99994416902122373880E+00
    0.99996193989995696416E+00
    0.99998353591407740382E+00
    0.99998644027655914091E+00
    0.99997367132296888226E+00
    0.99997655585772615705E+00
    0.99994693440244275529E+00
    0.99994010685794576521E+00
    0.99998758305005164271E+00
    0.99998385136154488428E+00
    0.99997016149796957851E+00
    0.99995888833311863397E+00
    0.99997594612974416428E+00
    0.99996996434495655226E+00
    0.99998527984295360049E+00
    0.99998928323023283937E+00
    0.99999117027005890446E+00
    0.99999316636036750250E+00
    0.99999098519466522728E+00
    0.99999177360084634536E+00
    0.99998675907523504325E+00
    0.99998567985036013184E+00
    0.99986530209407209480E+00
    0.99975845651016237436E+00
    0.99949797071383916780E+00
    0.99931813462568697126E+00
    0.99959971230959321353E+00
    0.99952608036301737737E+00
    0.99978041265055395126E+00
    0.99985953365853208474E+00
    0.99994076916775709307E+00
    0.99995496925199967020E+00
    0.99991570945125418657E+00
    0.99993398946371792047E+00
    0.99983035294660382863E+00
    0.99980023471014811687E+00
    0.99927366698065533956E+00
    0.99887844768701428144E+00
    0.99773377156831533075E+00
    0.99730047014722433829E+00
    0.99852175211537674837E+00
    0.99854820553025669394E+00
    0.99933330547769838592E+00
    0.99950085241325659080E+00
    0.99978449744691222367E+00
    0.99981463335139186821E+00
    0.99962113874663194313E+00
    0.99965525297360924295E+00
    0.99928379585961923937E+00
    0.99921673087812590275E+00
    0.99176661820204015108E+00
    0.98783926565811419618E+00
    0.97521151090340729706E+00
    0.97014302274010422167E+00
    0.98473359985651420789E+00
    0.98617213429059991103E+00
    0.99383272511872844390E+00
    0.99505615307763994881E+00
    0.99777211945103705393E+00
    0.99796081566345085090E+00
    0.99585252997148254739E+00
    0.99599367076112699237E+00
    0.99246460291829796674E+00
    0.99192854546510889069E+00
    0.99791426588770903994E+00
    0.99653113163838225042E+00
    0.99320228452347325554E+00
    0.99127294499006302075E+00
    0.99475408245370855465E+00
    0.99413983598126820507E+00
    0.99715098083563025178E+00
    0.99803438679589229210E+00
    0.99912506860856586943E+00
    0.99930086021378505823E+00
    0.99870490680325041399E+00
    0.99894153790270345805E+00
    0.99755469740690472236E+00
    0.99720830488165623784E+00
    0.97570003943144290037E+00
    0.96192798675456014923E+00
    0.92846723181328383312E+00
    0.90816683902412198570E+00
    0.94266193231376549377E+00
    0.93292050777957646890E+00
    0.96828505824319444084E+00
    0.97815432169128968543E+00
    0.98997833739236884565E+00
    0.99167088964276528529E+00
    0.98491558671399925817E+00
    0.98709152688143941834E+00
    0.97271413937655748505E+00
    0.96902306530317872113E+00
    0.99998169585147411720E+00
    0.99997197344214172610E+00
    0.99994612137564042875E+00
    0.99991955010766653267E+00
    0.99994911828825838729E+00
    0.99992965621867713200E+00
    0.99996578176624617562E+00
    0.99997862824353855871E+00
    0.99998666472353836543E+00
    0.99998966276431200395E+00
    0.99998594164708098919E+00
    0.99998766970471131277E+00
    0.99997678301871784079E+00
    0.99997285147489312074E+00
    0.99975048004352562447E+00
    0.99952197913184748224E+00
    0.99903672704995261089E+00
    0.99860300250524003385E+00
    0.99909964140641971397E+00
    0.99881309255805872382E+00
    0.99941544801117176977E+00
    0.99964919148096809121E+00
    0.99984843394797484617E+00
    0.99989238438469141279E+00
    0.99981553588032312518E+00
    0.99987004572769999644E+00
    0.99963065169295395318E+00
    0.99954787685483414972E+00
    0.99997837891627794349E+00
    0.99996427956910660662E+00
    0.99993223025384070368E+00
    0.99989221848756226763E+00
    0.99992514540522203781E+00
    0.99988585615074088153E+00
    0.99994193168535538963E+00
    0.99996672362920646648E+00
    0.99998092704105479012E+00
    0.99998546728423154395E+00
    0.99998128018708898335E+00
    0.99998464414881804707E+00
    0.99996830844577211383E+00
    0.99996109151573198126E+00
    0.99968832846191912900E+00
    0.99936629294324719197E+00
    0.99876541610945701599E+00
    0.99809575536619032921E+00
    0.99864312638013463808E+00
    0.99801810517183597860E+00
    0.99895635011906880329E+00
    0.99941044429552705619E+00
    0.99973600427815145775E+00
    0.99982405530734874688E+00
    0.99972751881411792141E+00
    0.99982601300399875921E+00
    0.99945845860192839005E+00
    0.99931194683306834303E+00
    0.99602723830869965838E+00
    0.99294227303503979076E+00
    0.98664872747324694480E+00
    0.98174734659323070751E+00
    0.98786418239668338792E+00
    0.98486014713917624519E+00
    0.99208245060011412964E+00
    0.99490706913038462478E+00
    0.99764290122931276183E+00
    0.99824131220305400980E+00
    0.99706649401212432693E+00
    0.99783558602708388729E+00
    0.99449297429402572224E+00
    0.99346144476610453999E+00
    0.95406188632399369087E+00
    0.92621235096804988007E+00
    0.87337018123166443306E+00
    0.84004551694717344290E+00
    0.88467171245876652375E+00
    0.85976986745554795366E+00
    0.91920085299360765330E+00
    0.94552464301789829193E+00
    0.97257572754844190399E+00
    0.97854191417733238367E+00
    0.96580897136141186099E+00
    0.97329212875777793013E+00