# vtk DataFile Version 3.0
LAPLACIEN  2D
ASCII
DATASET UNSTRUCTURED_GRID
 POINTS        1857  float
   3.1250000000000000E-002  0.93750000000000000        0.0000000000000000     
   6.2500000000000000E-002  0.93750000000000000        0.0000000000000000     
   6.2500000000000000E-002  0.96875000000000000        0.0000000000000000     
   1.8749999999999999E-002  0.95625000000000004        0.0000000000000000     
   4.0625000000000001E-002  0.95937499999999998        0.0000000000000000     
   4.3749999999999997E-002  0.98124999999999996        0.0000000000000000     
   2.1874999999999999E-002  0.97812500000000002        0.0000000000000000     
   9.3750000000000000E-002  0.93750000000000000        0.0000000000000000     
  0.12500000000000000       0.93750000000000000        0.0000000000000000     
  0.12500000000000000       0.96875000000000000        0.0000000000000000     
   8.1250000000000003E-002  0.95625000000000004        0.0000000000000000     
  0.10312499999999999       0.95937499999999998        0.0000000000000000     
  0.10625000000000000       0.98124999999999996        0.0000000000000000     
   8.4375000000000006E-002  0.97812500000000002        0.0000000000000000     
   3.1250000000000000E-002  0.87500000000000000        0.0000000000000000     
   6.2500000000000000E-002  0.87500000000000000        0.0000000000000000     
   6.2500000000000000E-002  0.90625000000000000        0.0000000000000000     
   1.8749999999999999E-002  0.89375000000000004        0.0000000000000000     
   4.0625000000000001E-002  0.89687499999999998        0.0000000000000000     
   4.3749999999999997E-002  0.91874999999999996        0.0000000000000000     
   2.1874999999999999E-002  0.91562500000000002        0.0000000000000000     
   9.3750000000000000E-002  0.87500000000000000        0.0000000000000000     
  0.12500000000000000       0.87500000000000000        0.0000000000000000     
  0.12500000000000000       0.90625000000000000        0.0000000000000000     
   8.1250000000000003E-002  0.89375000000000004        0.0000000000000000     
  0.10312499999999999       0.89687499999999998        0.0000000000000000     
  0.10625000000000000       0.91874999999999996        0.0000000000000000     
   8.4375000000000006E-002  0.91562500000000002        0.0000000000000000     
  0.15625000000000000       0.93750000000000000        0.0000000000000000     
  0.18750000000000000       0.93750000000000000        0.0000000000000000     
  0.18750000000000000       0.96875000000000000        0.0000000000000000     
  0.14374999999999999       0.95625000000000004        0.0000000000000000     
  0.16562499999999999       0.95937499999999998        0.0000000000000000     
  0.16875000000000001       0.98124999999999996        0.0000000000000000     
  0.14687500000000001       0.97812500000000002        0.0000000000000000     
  0.21875000000000000       0.93750000000000000        0.0000000000000000     
  0.25000000000000000       0.93750000000000000        0.0000000000000000     
  0.25000000000000000       0.96875000000000000        0.0000000000000000     
  0.20624999999999999       0.95625000000000004        0.0000000000000000     
  0.22812499999999999       0.95937499999999998        0.0000000000000000     
  0.23125000000000001       0.98124999999999996        0.0000000000000000     
  0.20937500000000001       0.97812500000000002        0.0000000000000000     
  0.15625000000000000       0.87500000000000000        0.0000000000000000     
  0.18750000000000000       0.87500000000000000        0.0000000000000000     
  0.18750000000000000       0.90625000000000000        0.0000000000000000     
  0.14374999999999999       0.89375000000000004        0.0000000000000000     
  0.16562499999999999       0.89687499999999998        0.0000000000000000     
  0.16875000000000001       0.91874999999999996        0.0000000000000000     
  0.14687500000000001       0.91562500000000002        0.0000000000000000     
  0.21875000000000000       0.87500000000000000        0.0000000000000000     
  0.25000000000000000       0.87500000000000000        0.0000000000000000     
  0.25000000000000000       0.90625000000000000        0.0000000000000000     
  0.20624999999999999       0.89375000000000004        0.0000000000000000     
  0.22812499999999999       0.89687499999999998        0.0000000000000000     
  0.23125000000000001       0.91874999999999996        0.0000000000000000     
  0.20937500000000001       0.91562500000000002        0.0000000000000000     
   3.1250000000000000E-002  0.81250000000000000        0.0000000000000000     
   6.2500000000000000E-002  0.81250000000000000        0.0000000000000000     
   6.2500000000000000E-002  0.84375000000000000        0.0000000000000000     
   1.8749999999999999E-002  0.83125000000000004        0.0000000000000000     
   4.0625000000000001E-002  0.83437499999999998        0.0000000000000000     
   4.3749999999999997E-002  0.85624999999999996        0.0000000000000000     
   2.1874999999999999E-002  0.85312500000000002        0.0000000000000000     
   9.3750000000000000E-002  0.81250000000000000        0.0000000000000000     
  0.12500000000000000       0.81250000000000000        0.0000000000000000     
  0.12500000000000000       0.84375000000000000        0.0000000000000000     
   8.1250000000000003E-002  0.83125000000000004        0.0000000000000000     
  0.10312499999999999       0.83437499999999998        0.0000000000000000     
  0.10625000000000000       0.85624999999999996        0.0000000000000000     
   8.4375000000000006E-002  0.85312500000000002        0.0000000000000000     
   3.1250000000000000E-002  0.75000000000000000        0.0000000000000000     
   6.2500000000000000E-002  0.75000000000000000        0.0000000000000000     
   6.2500000000000000E-002  0.78125000000000000        0.0000000000000000     
   1.8749999999999999E-002  0.76875000000000004        0.0000000000000000     
   4.0625000000000001E-002  0.77187499999999998        0.0000000000000000     
   4.3749999999999997E-002  0.79374999999999996        0.0000000000000000     
   2.1874999999999999E-002  0.79062500000000002        0.0000000000000000     
   9.3750000000000000E-002  0.75000000000000000        0.0000000000000000     
  0.12500000000000000       0.75000000000000000        0.0000000000000000     
  0.12500000000000000       0.78125000000000000        0.0000000000000000     
   8.1250000000000003E-002  0.76875000000000004        0.0000000000000000     
  0.10312499999999999       0.77187499999999998        0.0000000000000000     
  0.10625000000000000       0.79374999999999996        0.0000000000000000     
   8.4375000000000006E-002  0.79062500000000002        0.0000000000000000     
  0.15625000000000000       0.81250000000000000        0.0000000000000000     
  0.18750000000000000       0.81250000000000000        0.0000000000000000     
  0.18750000000000000       0.84375000000000000        0.0000000000000000     
  0.14374999999999999       0.83125000000000004        0.0000000000000000     
  0.16562499999999999       0.83437499999999998        0.0000000000000000     
  0.16875000000000001       0.85624999999999996        0.0000000000000000     
  0.14687500000000001       0.85312500000000002        0.0000000000000000     
  0.21875000000000000       0.81250000000000000        0.0000000000000000     
  0.25000000000000000       0.81250000000000000        0.0000000000000000     
  0.25000000000000000       0.84375000000000000        0.0000000000000000     
  0.20624999999999999       0.83125000000000004        0.0000000000000000     
  0.22812499999999999       0.83437499999999998        0.0000000000000000     
  0.23125000000000001       0.85624999999999996        0.0000000000000000     
  0.20937500000000001       0.85312500000000002        0.0000000000000000     
  0.15625000000000000       0.75000000000000000        0.0000000000000000     
  0.18750000000000000       0.75000000000000000        0.0000000000000000     
  0.18750000000000000       0.78125000000000000        0.0000000000000000     
  0.14374999999999999       0.76875000000000004        0.0000000000000000     
  0.16562499999999999       0.77187499999999998        0.0000000000000000     
  0.16875000000000001       0.79374999999999996        0.0000000000000000     
  0.14687500000000001       0.79062500000000002        0.0000000000000000     
  0.21875000000000000       0.75000000000000000        0.0000000000000000     
  0.25000000000000000       0.75000000000000000        0.0000000000000000     
  0.25000000000000000       0.78125000000000000        0.0000000000000000     
  0.20624999999999999       0.76875000000000004        0.0000000000000000     
  0.22812499999999999       0.77187499999999998        0.0000000000000000     
  0.23125000000000001       0.79374999999999996        0.0000000000000000     
  0.20937500000000001       0.79062500000000002        0.0000000000000000     
  0.28125000000000000       0.93750000000000000        0.0000000000000000     
  0.31250000000000000       0.93750000000000000        0.0000000000000000     
  0.31250000000000000       0.96875000000000000        0.0000000000000000     
  0.26874999999999999       0.95625000000000004        0.0000000000000000     
  0.29062500000000002       0.95937499999999998        0.0000000000000000     
  0.29375000000000001       0.98124999999999996        0.0000000000000000     
  0.27187499999999998       0.97812500000000002        0.0000000000000000     
  0.34375000000000000       0.93750000000000000        0.0000000000000000     
  0.37500000000000000       0.93750000000000000        0.0000000000000000     
  0.37500000000000000       0.96875000000000000        0.0000000000000000     
  0.33124999999999999       0.95625000000000004        0.0000000000000000     
  0.35312500000000002       0.95937499999999998        0.0000000000000000     
  0.35625000000000001       0.98124999999999996        0.0000000000000000     
[...]
 CELL_DATA        3584
 SCALARS Endothelial_cells float
 LOOKUP_TABLE default
    0.99999710445935452441E+00
    0.99999867979562750975E+00
    0.99999910759933108295E+00
    0.99999925355117802450E+00
    0.99999869226470239347E+00
    0.99999673759276430651E+00
    0.99999861744197626745E+00
    0.99999786970749948711E+00
    0.99999863979065906072E+00
    0.99999891413234853754E+00
    0.99999810260457178135E+00
    0.99999869313496625445E+00
    0.99999769238290847628E+00
    0.99999766539443668556E+00
    0.99999944283922725941E+00
    0.99999997749539770719E+00
    0.99999941247133683486E+00
    0.99999941507122613871E+00
    0.99999890324259077534E+00
    0.99999685410247307615E+00
    0.99999880364887550055E+00
    0.99999808368478881881E+00
    0.99999856956014565590E+00
    0.99999714387039284613E+00
    0.99999900761360038803E+00
    0.99999922117272099786E+00
    0.99999861101979836686E+00
    0.99999804242288747869E+00
    0.99999720832955019123E+00
    0.99999886993026831927E+00
    0.99999924714835108919E+00
    0.99999962723613755600E+00
    0.10000000533757018584E+01
    0.99999949036718427386E+00
    0.99999934244227062230E+00
    0.99999890699778370973E+00
    0.99999697068397075395E+00
    0.99999868036192418597E+00
    0.99999821129630084293E+00
    0.99999884939478111967E+00
    0.99999801200973015280E+00
    0.99999861053654492959E+00
    0.99999958474860972668E+00
    0.99999998930338351855E+00
    0.99999944519949524047E+00
    0.99999966889309666040E+00
    0.10000000234877040040E+01
    0.99999945883830776427E+00
    0.99999962597869396230E+00
    0.99999996639489907579E+00
    0.99999936019760049533E+00
    0.99999972658197577857E+00
    0.10000000513900555443E+01
    0.99999954053691642031E+00
    0.99999921591293827738E+00
    0.99999923335552742820E+00
    0.99999950464585762866E+00
    0.10000000648693367911E+01
    0.99999943622586462411E+00
    0.99999943273497415852E+00
    0.99999897371966117721E+00
    0.99999686995580838733E+00
    0.99999882680876372998E+00
    0.99999816814218223104E+00
    0.99999862722330667975E+00
    0.99999722594617390659E+00
    0.99999912596571527423E+00
    0.99999933037764376920E+00
    0.99999890811875935537E+00
    0.99999833278973948580E+00
    0.99999950813641025338E+00
    0.10000000669089761374E+01
    0.99999943717420913813E+00
    0.99999943338704522233E+00
    0.99999897512173774317E+00
    0.99999687053675245796E+00
    0.99999882783476568004E+00
    0.99999817065917540049E+00
    0.99999863132419652967E+00
    0.99999723333239587397E+00
    0.99999913139935159290E+00
    0.99999933933651907747E+00
    0.99999891147055053331E+00
    0.99999833577564378739E+00
    0.99999961768544209928E+00
    0.10000000180459951427E+01
    0.99999946380252469069E+00
    0.99999968120362248136E+00
    0.10000000413980427716E+01
    0.99999946945045847801E+00
    0.99999964559637621875E+00
    0.99999999895475688572E+00
    0.99999939503990542544E+00
    0.99999966799642936444E+00
    0.10000000838502867140E+01
    0.99999958937052491059E+00
    0.99999925053805316377E+00
    0.99999926468165722948E+00
    0.99999962090888061539E+00
    0.10000000199175371751E+01
    0.99999946422865615414E+00
    0.99999968140783090931E+00
    0.10000000422165131742E+01
    0.99999947002483036140E+00
    0.99999964649583872323E+00
    0.10000000006132561126E+01
    0.99999942623673299114E+00
    0.99999970239985147558E+00
    0.10000000883910880045E+01
    0.99999959660925552551E+00
    0.99999925303012315858E+00
    0.99999926652938642135E+00
    0.99999721694981447140E+00
    0.99999888352421595350E+00
    0.99999925760574848166E+00
    0.99999964319597778317E+00
    0.10000000812216367496E+01
    0.99999953651687956135E+00
    0.99999935049190358249E+00
    0.99999894764654528867E+00
    0.99999703883002644123E+00
    0.99999872678805568071E+00
    0.99999823767412365783E+00
    0.99999886362047574195E+00
    0.99999803534106723735E+00
    0.99999863808663447262E+00
    0.99999959537408411592E+00
    0.10000000091181668882E+01
    0.99999945755321661967E+00
    0.99999968664283789277E+00
    0.10000000591622333346E+01
    0.99999949819225930625E+00
    0.99999959670494920072E+00
    0.10000000144468350616E+01
    0.99999945312808780074E+00
    0.99999978669213351878E+00
    0.10000000888693314494E+01
    0.99999955794771810957E+00
    0.99999926447405718122E+00
    0.99999928676985572196E+00
    0.99999721736263291749E+00
    0.99999888423106275681E+00
    0.99999925807774869835E+00
    0.99999964398053109438E+00
    0.10000000829107658085E+01
    0.99999954035770755034E+00
    0.99999935744502965740E+00
    0.99999895183717923963E+00
    0.99999704435860692353E+00
    0.99999873023355156931E+00
    0.99999823937240917004E+00
    0.99999886440267649057E+00
    0.99999803676026666199E+00
    0.99999863994361792852E+00
    0.99999959578384300940E+00
    0.10000000098464119080E+01
    0.99999945768181086603E+00
    0.99999968695083263359E+00
    0.10000000611933834715E+01
    0.99999950237702250888E+00
    0.99999960470030091475E+00
    0.10000000193575779850E+01
    0.99999945969405978907E+00
    0.99999979065374711151E+00
    0.10000000908300570313E+01
    0.99999955878943802556E+00
    0.99999926622242529817E+00
    0.99999928911407154342E+00
    0.99999962707913470084E+00
    0.10000000345830351023E+01
    0.99999947484640894224E+00
    0.99999969836419932978E+00
    0.10000000743408097303E+01
    0.99999950973391960041E+00
    0.99999961568514583732E+00
    0.10000000418528791624E+01
    0.99999947341873374196E+00
    0.99999972235495671047E+00
    0.10000001176956667681E+01
    0.99999960653234243324E+00
    0.99999928131092019612E+00
    0.99999930012966553594E+00
    0.99999961951239380031E+00
    0.10000000187793414153E+01
    0.99999941590742102981E+00
    0.99999966941886220262E+00
    0.10000000613304276254E+01
    0.99999950347814825502E+00
    0.99999961516837310160E+00
    0.10000000427052953000E+01
    0.99999947718010273601E+00
    0.99999972963848549057E+00
    0.10000001214601146327E+01
    0.99999961238946355468E+00
    0.99999927866375903918E+00
    0.99999929731983683290E+00
    0.99999962080896165340E+00
    0.10000000213505788604E+01
    0.99999942752521320255E+00
    0.99999966272494700270E+00
    0.10000000587059683088E+01
    0.99999950029050488354E+00
    0.99999962078614179628E+00
    0.10000000450167718657E+01
    0.99999947928609977943E+00
    0.99999972632559663843E+00
    0.10000001183031157481E+01
    0.99999960589011727130E+00
    0.99999927830478574364E+00
    0.99999929712607726895E+00
    0.99999910793535407016E+00
    0.99999917810718497169E+00
    0.99999565690748304370E+00
    0.99999590858382758629E+00
    0.99999918422432676479E+00
    0.99999895082125278556E+00
    0.99999949771230867146E+00
    0.10000000101037056499E+01
    0.99999945743639784279E+00
    0.99999970570559459926E+00
    0.10000000882891513232E+01
    0.99999950284313765536E+00
    0.99999904121422322767E+00
    0.99999905261308541515E+00
    0.99999950838009565857E+00
    0.10000000669996695901E+01
    0.99999943716325934151E+00
    0.99999943338953189986E+00
    0.99999897518161651178E+00
    0.99999687055552122228E+00
    0.99999882786960048175E+00
    0.99999817076409613925E+00
    0.99999863148175938132E+00
    0.99999723362536863114E+00
    0.99999913163097575719E+00
    0.99999933969704812853E+00
    0.99999891164714016512E+00
    0.99999833592981324237E+00
    0.99999950810620208408E+00
    0.10000000669063462411E+01
    0.99999943685330117127E+00
    0.99999943326823270695E+00
    0.99999897514971536339E+00
    0.99999687054724417656E+00
    0.99999882786750193819E+00
    0.99999817076121444437E+00
    0.99999863148367262866E+00
    0.99999723363134163101E+00
    0.99999913162359332919E+00
    0.99999933968051146760E+00
    0.99999891162467025030E+00
    0.99999833591525011389E+00
    0.99999961729668118693E+00
    0.10000000166254243705E+01
    0.99999945441133342161E+00
    0.99999967524184951717E+00
    0.10000000406485527460E+01
    0.99999946938873707225E+00
    0.99999964640341076905E+00
    0.10000000005536466841E+01
    0.99999942800700314383E+00
    0.99999970428983864235E+00
    0.10000000882687294368E+01
    0.99999959613918931733E+00
    0.99999925223242969174E+00
    0.99999926594441224115E+00
    0.99999959655640813239E+00
    0.99999998697504000056E+00
    0.99999938541358179833E+00
    0.99999965838130433493E+00
    0.10000000294930486699E+01
    0.99999946692443986151E+00
    0.99999964567463961451E+00
    0.99999999899102198775E+00
    0.99999942567999000609E+00
    0.99999970155536344052E+00
    0.10000000839887472903E+01
    0.99999958632914709433E+00
    0.99999924407022788841E+00
    0.99999926046146392355E+00
    0.99999950828401862335E+00
    0.10000000666922246317E+01
    0.99999943589211903738E+00
    0.99999943291999593420E+00
    0.99999897506131962821E+00
    0.99999687052626307082E+00
    0.99999882785973359667E+00
    0.99999817074766916836E+00
    0.99999863147826861809E+00
    0.99999723362040915386E+00
    0.99999913157138464737E+00
    0.99999933964825793442E+00
    0.99999891153988940129E+00
    0.99999833586392927742E+00
    0.99999950678897875367E+00
    0.10000000661580896733E+01
    0.99999943492214593554E+00
    0.99999943263380264291E+00
    0.99999897498261713924E+00
    0.99999687050988972370E+00
    0.99999882785142746311E+00
    0.99999817072939201079E+00
    0.99999863146812917325E+00
    0.99999723359806724776E+00
    0.99999913146270424935E+00
    0.99999933925869488593E+00
    0.99999891140943431012E+00
    0.99999833579771324477E+00
    0.99999943062718599229E+00
    0.99999998680723911626E+00
    0.99999917820162931292E+00
    0.99999959606100186083E+00
    0.10000000314010772939E+01
    0.99999945892784825041E+00
    0.99999964310672329049E+00
    0.99999999380627935253E+00
    0.99999939722924791052E+00
    0.99999967036105663620E+00
    0.10000000634892176610E+01
    0.99999954204556318338E+00
    0.99999921901007438052E+00
    0.99999924403977580312E+00
    0.99999904496181224456E+00
    0.99999988849283549808E+00
    0.99999891069043933545E+00
    0.99999950452996866357E+00
    0.10000000224105076718E+01
    0.99999945343337059978E+00
    0.99999964054293122295E+00
    0.99999998624055186358E+00
    0.99999939359082590240E+00
    0.99999966167515585980E+00
    0.10000000592575701841E+01
    0.99999945766467657204E+00
    0.99999918110869867593E+00
    0.99999922222270409833E+00
    0.99999926194448873762E+00
    0.99999973583099832641E+00
    0.99999822120374370904E+00
    0.99999894462424765429E+00
    0.99999992181701125027E+00
    0.99999941653103474604E+00
    0.99999959949922156976E+00
    0.10000000111239981671E+01
    0.99999946895800351232E+00
    0.99999971802972509316E+00
    0.10000000697969659846E+01
    0.99999953911272088103E+00
    0.99999917326653242622E+00
    0.99999921031309413344E+00
    0.99999366660919575267E+00
    0.99999538900573092803E+00
    0.99998633937643011116E+00
    0.99999232016870898132E+00
    0.99999794021057297755E+00
    0.99999871095651382547E+00
    0.99999940133905407258E+00
    0.99999984348016324187E+00
    0.99999939467490861489E+00
    0.99999957057023347584E+00
    0.99999964797517870707E+00
    0.99999817913931299262E+00
    0.99999798016727647898E+00
    0.99999835547075510700E+00
    0.99992981046376028242E+00
    0.99991610195273739059E+00
    0.99953905803750020542E+00
    0.99983304562261843262E+00
    0.99996643384101113750E+00
    0.99998710949315272600E+00
    0.99999643109856117817E+00
    0.99999680664495915750E+00
    0.99999866367352407970E+00
    0.99999867374529394226E+00
    0.99999516799513821219E+00
    0.99998898304452621399E+00
    0.99998329722457046653E+00
    0.99998803903519661862E+00
    0.99780044657445232659E+00
    0.99913159397952322482E+00
    0.99728930702514662077E+00
    0.99904326285332734070E+00
    0.99974475403016227482E+00
    0.99990340924109166743E+00
    0.99996993135025724619E+00
    0.99996021814373636794E+00
    0.99998705903476525769E+00
    0.99998018794797938202E+00
    0.99989994512675683946E+00
    0.99965325391783665943E+00
    0.99980756203579868036E+00
    0.99987483317121095272E+00
    0.99996185992406627641E+00
    0.99997584873420319873E+00
    0.99994408977988813447E+00
    0.99997211486216663889E+00
    0.99999143232521892077E+00
    0.99999669567059079611E+00
    0.99999874009143474574E+00
    0.99999860768674275757E+00
    0.99999893480820289948E+00
    0.99999865550910971290E+00
    0.99999584571590793836E+00
    0.99998880638623133255E+00
    0.99999197505277204190E+00
    0.99999434590245672716E+00
    0.99989524794845019429E+00
    0.99994557678463824590E+00
    0.99989705831944486469E+00
    0.99995414450174768817E+00
    0.99998503570079433356E+00
    0.99999511631426385438E+00
    0.99999804536678360556E+00
    0.99999674569263408141E+00
    0.99999799418046020349E+00
    0.99999649791123534914E+00
    0.99998756947927702754E+00
    0.99996604271619848880E+00
    0.99998228242273223820E+00
    0.99998855901498251431E+00
    0.99504162948244823106E+00
    0.99748479870458883756E+00
    0.99416295824382006074E+00
    0.99728444840143037897E+00
    0.99909141967736203593E+00
    0.99966140688599647302E+00
    0.99987858971922161100E+00
    0.99980496585236222629E+00
    0.99992414193925649446E+00
    0.99987448188640493107E+00
    0.99951269622369887102E+00
    0.99877834789481145794E+00
    0.99922289191102353634E+00
    0.99944982983879826488E+00
    0.99014806849236824959E+00
    0.99491693313923079689E+00
    0.99053239024623829234E+00
    0.99566070031253228745E+00
    0.99841443851714528623E+00
    0.99946138384558691481E+00
    0.99977875533453819390E+00
    0.99956724916965600247E+00
    0.99979272959790654873E+00
    0.99961422256875420711E+00
    0.99866995958018478508E+00
    0.99679933104863538418E+00
    0.99825032653224843315E+00
    0.99881415140956664178E+00
    0.99999721737065216942E+00
    0.99999888424473248882E+00
    0.99999925806686518204E+00
    0.99999964395252438631E+00
    0.10000000829351747278E+01
    0.99999954041036076546E+00
    0.99999935771244263805E+00
    0.99999895199461086293E+00
    0.99999704459311422600E+00
    0.99999873036180719765E+00
    0.99999823942666798970E+00
    0.99999886442290841781E+00
    0.99999803680374799164E+00
    0.99999864000287042032E+00
    0.99999959525209713984E+00
    0.10000000082520861255E+01
    0.99999945160157377444E+00
    0.99999967732033978596E+00
    0.10000000578132202111E+01
    0.99999949874083826629E+00
    0.99999960418505806636E+00
    0.10000000191546780659E+01
    0.99999945985819749250E+00
    0.99999979068617006472E+00
    0.10000000906896466812E+01
    0.99999955867888967731E+00
    0.99999926562831020771E+00
    0.99999928830451589867E+00
    0.99999721736233670999E+00
    0.99999888421256744042E+00
    0.99999925793377464345E+00
    0.99999964363030380277E+00
    0.10000000828292210375E+01
    0.99999954023590154062E+00
    0.99999935768068970443E+00
    0.99999895198465105217E+00
    0.99999704459578564464E+00
    0.99999873036283737360E+00
    0.99999823942365329010E+00
    0.99999886442073815385E+00
    0.99999803678929277684E+00
    0.99999863997899851586E+00
    0.99999959189802689608E+00
    0.99999999702681063862E+00
    0.99999941327837160721E+00
    0.99999962850607382325E+00
    0.10000000402647317710E+01
    0.99999945708173032521E+00
    0.99999959742473198965E+00
    0.10000000150186467707E+01
    0.99999945904365228344E+00
    0.99999979025711605019E+00
    0.10000000891720384200E+01
    0.99999955779165516923E+00
    0.99999926015580964389E+00
    0.99999928028139850600E+00
    0.99999955126250772430E+00
    0.99999989806494171685E+00
    0.99999864947634986567E+00
    0.99999842897753343784E+00
    0.99999974517813461361E+00
    0.99999910949952153238E+00
    0.99999953777109862330E+00
    0.99999999463165822888E+00
    0.99999946777005166432E+00
    0.99999971809339294193E+00
    0.10000000858871302967E+01
    0.99999958131255062277E+00
    0.99999918522802577758E+00
    0.99999918221120065454E+00
    0.99998730335472563180E+00
    0.99996643790555461706E+00
    0.99983271687762709234E+00
    0.99953923530276689302E+00
    0.99991606836115431989E+00
    0.99992962593115453096E+00
    0.99998893313287762208E+00
    0.99999505992291537471E+00
    0.99999851333512213003E+00
    0.99999892218353569895E+00
    0.99999689103967615011E+00
    0.99999645589048435923E+00
    0.99998802096507677373E+00
    0.99998328151514270790E+00
    0.99999886591390529933E+00
    0.99999792991867797465E+00
    0.99999200598775561666E+00
    0.99998652598864390395E+00
    0.99999538174688773484E+00
    0.99999351737856656541E+00
    0.99999813791631697590E+00
    0.99999954797290724340E+00
    0.99999937019980345010E+00
    0.99999965048052086303E+00
    0.99999992233425560872E+00
    0.99999940815746479750E+00
    0.99999833443684760237E+00
    0.99999797356526543002E+00
    0.99990362304032243124E+00
    0.99974476386496224922E+00
    0.99904292042541209540E+00
    0.99728947011162782932E+00
    0.99913156744358189165E+00
    0.99780029583209917110E+00
    0.99965317051432978079E+00
    0.99989982877077010492E+00
    0.99998008636872637300E+00
    0.99998735203050748144E+00
    0.99996031099659710151E+00
    0.99996995764079188440E+00
    0.99987481471406081113E+00
    0.99980754082983569475E+00
    0.99999721734145885499E+00
    0.99999888412436843677E+00
    0.99999925758569585543E+00
    0.99999964266083385400E+00
    0.10000000824426018564E+01
    0.99999953942237240767E+00
    0.99999935749152490949E+00
    0.99999895192619570050E+00
    0.99999704458485094705E+00
    0.99999873035725339587E+00
    0.99999823940984278181E+00
    0.99999886441268770465E+00
    0.99999803673804055215E+00
    0.99999863988744874810E+00
    0.99999958376967523765E+00
    0.99999999108804826786E+00
    0.99999932363425514392E+00
    0.99999940152167599017E+00
    0.10000000123165369015E+01
    0.99999927979894887020E+00
    0.99999955126832718033E+00
    0.99999999535726125099E+00
    0.99999945476571427960E+00
    0.99999978829171110029E+00
    0.10000000835917757236E+01
    0.99999955517305805230E+00
    0.99999923708733040595E+00
    0.99999924825370345438E+00
    0.99999721732668522822E+00
    0.99999888404714076806E+00
    0.99999925730868444163E+00
    0.99999964169529365066E+00
    0.10000000819096028781E+01
    0.99999953793214890752E+00
    0.99999935710263276878E+00
    0.99999895181765452445E+00
    0.99999704456275573250E+00
    0.99999873034747299716E+00
    0.99999823939172993725E+00
    0.99999886440499141660E+00
    0.99999803667072073576E+00
    0.99999863975645908454E+00
    0.99999957841522335578E+00
    0.99999998920054344875E+00
    0.99999924838829135076E+00
    0.99999912708512272985E+00
    0.99999991474707861094E+00
    0.99999890034626037760E+00
    0.99999945888770480629E+00
    0.99999999168895070678E+00
    0.99999944662438999821E+00
    0.99999978469950190352E+00
    0.10000000758060183514E+01
    0.99999955261866402267E+00
    0.99999921027302463017E+00
    0.99999920568360523010E+00
    0.99999686018396904963E+00
    0.99999142742827851205E+00
    0.99997179362413546322E+00
    0.99994426929027235840E+00
    0.99997583975033788040E+00
    0.99996171625264806959E+00
    0.99998874330224707396E+00
    0.99999573447703093976E+00
    0.99999850453874783440E+00
    0.99999921031434446661E+00
    0.99999869111987538250E+00
    0.99999875567403972987E+00
    0.99999432576373536996E+00
    0.99999196257151334866E+00
    0.99966162864353935724E+00
    0.99909143210929374224E+00
    0.99728410171354686664E+00
    0.99416311689453762401E+00
    0.99748477247266764678E+00
    0.99504148427435856750E+00
    0.99877825247558327248E+00
    0.99951257935990844850E+00
    0.99987440500028423873E+00
    0.99992445058179180162E+00
    0.99980506403424662665E+00
    0.99987861617765794175E+00