# vtk DataFile Version 3.0
LAPLACIEN  2D
ASCII
DATASET UNSTRUCTURED_GRID
 POINTS        1857  float
   3.1250000000000000E-002  0.93750000000000000        0.0000000000000000     
   6.2500000000000000E-002  0.93750000000000000        0.0000000000000000     
   6.2500000000000000E-002  0.96875000000000000        0.0000000000000000     
   1.8749999999999999E-002  0.95625000000000004        0.0000000000000000     
   4.0625000000000001E-002  0.95937499999999998        0.0000000000000000     
   4.3749999999999997E-002  0.98124999999999996        0.0000000000000000     
   2.1874999999999999E-002  0.97812500000000002        0.0000000000000000     
   9.3750000000000000E-002  0.93750000000000000        0.0000000000000000     
  0.12500000000000000       0.93750000000000000        0.0000000000000000     
  0.12500000000000000       0.96875000000000000        0.0000000000000000     
   8.1250000000000003E-002  0.95625000000000004        0.0000000000000000     
  0.10312499999999999       0.95937499999999998        0.0000000000000000     
  0.10625000000000000       0.98124999999999996        0.0000000000000000     
   8.4375000000000006E-002  0.97812500000000002        0.0000000000000000     
   3.1250000000000000E-002  0.87500000000000000        0.0000000000000000     
   6.2500000000000000E-002  0.87500000000000000        0.0000000000000000     
   6.2500000000000000E-002  0.90625000000000000        0.0000000000000000     
   1.8749999999999999E-002  0.89375000000000004        0.0000000000000000     
   4.0625000000000001E-002  0.89687499999999998        0.0000000000000000     
   4.3749999999999997E-002  0.91874999999999996        0.0000000000000000     
   2.1874999999999999E-002  0.91562500000000002        0.0000000000000000     
   9.3750000000000000E-002  0.87500000000000000        0.0000000000000000     
  0.12500000000000000       0.87500000000000000        0.0000000000000000     
  0.12500000000000000       0.90625000000000000        0.0000000000000000     
   8.1250000000000003E-002  0.89375000000000004        0.0000000000000000     
  0.10312499999999999       0.89687499999999998        0.0000000000000000     
  0.10625000000000000       0.91874999999999996        0.0000000000000000     
   8.4375000000000006E-002  0.91562500000000002        0.0000000000000000     
  0.15625000000000000       0.93750000000000000        0.0000000000000000     
  0.18750000000000000       0.93750000000000000        0.0000000000000000     
  0.18750000000000000       0.96875000000000000        0.0000000000000000     
  0.14374999999999999       0.95625000000000004        0.0000000000000000     
  0.16562499999999999       0.95937499999999998        0.0000000000000000     
  0.16875000000000001       0.98124999999999996        0.0000000000000000     
  0.14687500000000001       0.97812500000000002        0.0000000000000000     
  0.21875000000000000       0.93750000000000000        0.0000000000000000     
  0.25000000000000000       0.93750000000000000        0.0000000000000000     
  0.25000000000000000       0.96875000000000000        0.0000000000000000     
  0.20624999999999999       0.95625000000000004        0.0000000000000000     
  0.22812499999999999       0.95937499999999998        0.0000000000000000     
  0.23125000000000001       0.98124999999999996        0.0000000000000000     
  0.20937500000000001       0.97812500000000002        0.0000000000000000     
  0.15625000000000000       0.87500000000000000        0.0000000000000000     
  0.18750000000000000       0.87500000000000000        0.0000000000000000     
  0.18750000000000000       0.90625000000000000        0.0000000000000000     
  0.14374999999999999       0.89375000000000004        0.0000000000000000     
  0.16562499999999999       0.89687499999999998        0.0000000000000000     
  0.16875000000000001       0.91874999999999996        0.0000000000000000     
  0.14687500000000001       0.91562500000000002        0.0000000000000000     
  0.21875000000000000       0.87500000000000000        0.0000000000000000     
  0.25000000000000000       0.87500000000000000        0.0000000000000000     
  0.25000000000000000       0.90625000000000000        0.0000000000000000     
  0.20624999999999999       0.89375000000000004        0.0000000000000000     
  0.22812499999999999       0.89687499999999998        0.0000000000000000     
  0.23125000000000001       0.91874999999999996        0.0000000000000000     
  0.20937500000000001       0.91562500000000002        0.0000000000000000     
   3.1250000000000000E-002  0.81250000000000000        0.0000000000000000     
   6.2500000000000000E-002  0.81250000000000000        0.0000000000000000     
   6.2500000000000000E-002  0.84375000000000000        0.0000000000000000     
   1.8749999999999999E-002  0.83125000000000004        0.0000000000000000     
   4.0625000000000001E-002  0.83437499999999998        0.0000000000000000     
   4.3749999999999997E-002  0.85624999999999996        0.0000000000000000     
   2.1874999999999999E-002  0.85312500000000002        0.0000000000000000     
   9.3750000000000000E-002  0.81250000000000000        0.0000000000000000     
  0.12500000000000000       0.81250000000000000        0.0000000000000000     
  0.12500000000000000       0.84375000000000000        0.0000000000000000     
   8.1250000000000003E-002  0.83125000000000004        0.0000000000000000     
  0.10312499999999999       0.83437499999999998        0.0000000000000000     
  0.10625000000000000       0.85624999999999996        0.0000000000000000     
   8.4375000000000006E-002  0.85312500000000002        0.0000000000000000     
   3.1250000000000000E-002  0.75000000000000000        0.0000000000000000     
   6.2500000000000000E-002  0.75000000000000000        0.0000000000000000     
   6.2500000000000000E-002  0.78125000000000000        0.0000000000000000     
   1.8749999999999999E-002  0.76875000000000004        0.0000000000000000     
   4.0625000000000001E-002  0.77187499999999998        0.0000000000000000     
   4.3749999999999997E-002  0.79374999999999996        0.0000000000000000     
   2.1874999999999999E-002  0.79062500000000002        0.0000000000000000     
   9.3750000000000000E-002  0.75000000000000000        0.0000000000000000     
  0.12500000000000000       0.75000000000000000        0.0000000000000000     
  0.12500000000000000       0.78125000000000000        0.0000000000000000     
   8.1250000000000003E-002  0.76875000000000004        0.0000000000000000     
  0.10312499999999999       0.77187499999999998        0.0000000000000000     
  0.10625000000000000       0.79374999999999996        0.0000000000000000     
   8.4375000000000006E-002  0.79062500000000002        0.0000000000000000     
  0.15625000000000000       0.81250000000000000        0.0000000000000000     
  0.18750000000000000       0.81250000000000000        0.0000000000000000     
  0.18750000000000000       0.84375000000000000        0.0000000000000000     
  0.14374999999999999       0.83125000000000004        0.0000000000000000     
  0.16562499999999999       0.83437499999999998        0.0000000000000000     
  0.16875000000000001       0.85624999999999996        0.0000000000000000     
  0.14687500000000001       0.85312500000000002        0.0000000000000000     
  0.21875000000000000       0.81250000000000000        0.0000000000000000     
  0.25000000000000000       0.81250000000000000        0.0000000000000000     
  0.25000000000000000       0.84375000000000000        0.0000000000000000     
  0.20624999999999999       0.83125000000000004        0.0000000000000000     
  0.22812499999999999       0.83437499999999998        0.0000000000000000     
  0.23125000000000001       0.85624999999999996        0.0000000000000000     
  0.20937500000000001       0.85312500000000002        0.0000000000000000     
  0.15625000000000000       0.75000000000000000        0.0000000000000000     
  0.18750000000000000       0.75000000000000000        0.0000000000000000     
  0.18750000000000000       0.78125000000000000        0.0000000000000000     
  0.14374999999999999       0.76875000000000004        0.0000000000000000     
  0.16562499999999999       0.77187499999999998        0.0000000000000000     
  0.16875000000000001       0.79374999999999996        0.0000000000000000     
  0.14687500000000001       0.79062500000000002        0.0000000000000000     
  0.21875000000000000       0.75000000000000000        0.0000000000000000     
  0.25000000000000000       0.75000000000000000        0.0000000000000000     
  0.25000000000000000       0.78125000000000000        0.0000000000000000     
  0.20624999999999999       0.76875000000000004        0.0000000000000000     
  0.22812499999999999       0.77187499999999998        0.0000000000000000     
  0.23125000000000001       0.79374999999999996        0.0000000000000000     
  0.20937500000000001       0.79062500000000002        0.0000000000000000     
  0.28125000000000000       0.93750000000000000        0.0000000000000000     
  0.31250000000000000       0.93750000000000000        0.0000000000000000     
  0.31250000000000000       0.96875000000000000        0.0000000000000000     
  0.26874999999999999       0.95625000000000004        0.0000000000000000     
  0.29062500000000002       0.95937499999999998        0.0000000000000000     
  0.29375000000000001       0.98124999999999996        0.0000000000000000     
  0.27187499999999998       0.97812500000000002        0.0000000000000000     
  0.34375000000000000       0.93750000000000000        0.0000000000000000     
  0.37500000000000000       0.93750000000000000        0.0000000000000000     
  0.37500000000000000       0.96875000000000000        0.0000000000000000     
  0.33124999999999999       0.95625000000000004        0.0000000000000000     
  0.35312500000000002       0.95937499999999998        0.0000000000000000     
  0.35625000000000001       0.98124999999999996        0.0000000000000000     
[...]
 CELL_DATA        3584
 SCALARS Endothelial_cells float
 LOOKUP_TABLE default
    0.99999382230353517365E+00
    0.99999571088034422406E+00
    0.99999683688086626887E+00
    0.99999693759370722468E+00
    0.99999575383355654434E+00
    0.99999374135995078294E+00
    0.99999544364115955375E+00
    0.99999478601191138516E+00
    0.99999587095742781262E+00
    0.99999616398134860695E+00
    0.99999506049748798642E+00
    0.99999551643623640906E+00
    0.99999454586540947876E+00
    0.99999451160841068553E+00
    0.99999783396528829638E+00
    0.99999827463076285117E+00
    0.99999778731449029401E+00
    0.99999747460406440691E+00
    0.99999629226216968370E+00
    0.99999372640451311689E+00
    0.99999569221292516907E+00
    0.99999513533654482700E+00
    0.99999544006737350887E+00
    0.99999416994985246276E+00
    0.99999646258483620986E+00
    0.99999706839997881680E+00
    0.99999631199806238158E+00
    0.99999552852360540367E+00
    0.99999409832281449528E+00
    0.99999628939369433756E+00
    0.99999733300119386659E+00
    0.99999803401646869538E+00
    0.99999840774979620317E+00
    0.99999805584831402694E+00
    0.99999726311492420638E+00
    0.99999632471167598791E+00
    0.99999374574918442615E+00
    0.99999546403453620780E+00
    0.99999528046869912146E+00
    0.99999581240978185903E+00
    0.99999551276888865026E+00
    0.99999631248620535207E+00
    0.99999818084253655481E+00
    0.99999861577291193626E+00
    0.99999776383470784236E+00
    0.99999802974792306731E+00
    0.99999862173219533634E+00
    0.99999800356154899816E+00
    0.99999811368286195545E+00
    0.99999853306315722445E+00
    0.99999794824501508916E+00
    0.99999843730822401966E+00
    0.99999879661734702996E+00
    0.99999810003302114225E+00
    0.99999784860154561361E+00
    0.99999782895914823833E+00
    0.99999794564210953141E+00
    0.99999830152542390493E+00
    0.99999759183703340604E+00
    0.99999738507720015157E+00
    0.99999646519869478389E+00
    0.99999375910475851725E+00
    0.99999580434524448780E+00
    0.99999538726447445569E+00
    0.99999552693900417566E+00
    0.99999411592945930405E+00
    0.99999673129421617901E+00
    0.99999741631384564400E+00
    0.99999664503521079606E+00
    0.99999601488095923862E+00
    0.99999704258350818886E+00
    0.99999732673906605029E+00
    0.99999576566246128895E+00
    0.99999605239056510442E+00
    0.99999586081860203368E+00
    0.99999349482502319919E+00
    0.99999571058207614715E+00
    0.99999518173163670642E+00
    0.99999544408286167307E+00
    0.99999406115013855789E+00
    0.99999657229578031714E+00
    0.99999716921893988530E+00
    0.99999601981790775529E+00
    0.99999540347565596399E+00
    0.99999651341634743229E+00
    0.99999669253121603596E+00
    0.99999328539533682836E+00
    0.99999396115491245851E+00
    0.99999692485080993176E+00
    0.99999680572860982775E+00
    0.99999765939755203004E+00
    0.99999838555022568798E+00
    0.99999790584014291994E+00
    0.99999817661448597850E+00
    0.99999857306652351063E+00
    0.99999772569074452111E+00
    0.99999715846315750944E+00
    0.99999718123412872917E+00
    0.99998088180126720736E+00
    0.99998026090780012254E+00
    0.99995996743264625728E+00
    0.99996613209155926771E+00
    0.99998446076678770833E+00
    0.99998900363308351746E+00
    0.99999441944206279853E+00
    0.99999498558687072158E+00
    0.99999647200010433057E+00
    0.99999650435792208913E+00
    0.99999424423871474676E+00
    0.99999161925690482899E+00
    0.99998942184275918521E+00
    0.99999012138805376537E+00
    0.99999410213037986939E+00
    0.99999624050263680175E+00
    0.99999709868069330820E+00
    0.99999783812965092888E+00
    0.99999820800583083535E+00
    0.99999788126607125349E+00
    0.99999741696768218446E+00
    0.99999643273736738003E+00
    0.99999393237790790145E+00
    0.99999559385821878976E+00
    0.99999533960668351984E+00
    0.99999583285603743654E+00
    0.99999551652819318459E+00
    0.99999616970401550287E+00
    0.99999700634932331411E+00
    0.99999693741157202886E+00
    0.99999361283156928959E+00
    0.99999346483026041454E+00
    0.99999665249744440487E+00
    0.99999629996177386015E+00
    0.99999763982615841318E+00
    0.99999847083277915161E+00
    0.99999801178101965782E+00
    0.99999820343826795188E+00
    0.99999850608351825709E+00
    0.99999768149497414438E+00
    0.99999719181124080425E+00
    0.99999715931651844691E+00
    0.99999395275700242447E+00
    0.99999573029536403812E+00
    0.99999565657302225130E+00
    0.99999591322315450892E+00
    0.99999719376732443266E+00
    0.99999687607103648901E+00
    0.99999706790150222346E+00
    0.99999630376093373574E+00
    0.99999389176455688588E+00
    0.99999550104053624988E+00
    0.99999522061877677004E+00
    0.99999583411680914580E+00
    0.99999517331516807328E+00
    0.99999575175975241592E+00
    0.99998926654704523020E+00
    0.99998447698358572389E+00
    0.99996575266048226549E+00
    0.99996011437890885976E+00
    0.99998018826109247303E+00
    0.99998069218214857834E+00
    0.99999147671266785942E+00
    0.99999410236253039042E+00
    0.99999642762036122789E+00
    0.99999676027507744536E+00
    0.99999510409485015128E+00
    0.99999447087305903814E+00
    0.99999010828928114325E+00
    0.99998938558618943873E+00
    0.99997823848984357387E+00
    0.99997241851596330164E+00
    0.99994099605096242733E+00
    0.99994126219938439526E+00
    0.99997236101868669511E+00
    0.99997795286826951511E+00
    0.99999033374157586529E+00
    0.99999204556326382054E+00
    0.99999546526646865274E+00
    0.99999562554095489109E+00
    0.99999217936095952108E+00
    0.99999043112617302942E+00
    0.99998460523775001274E+00
    0.99998459258463101573E+00
    0.99980256105261189337E+00
    0.99977120822964893332E+00
    0.99954346921254577651E+00
    0.99958201057167317405E+00
    0.99980016180294462025E+00
    0.99985942324272925052E+00
    0.99993797698622000070E+00
    0.99993951165496575140E+00
    0.99997234582265315250E+00
    0.99997045380207716381E+00
    0.99993090399512585265E+00
    0.99991438280164324226E+00
    0.99987923645497123193E+00
    0.99988449429260040091E+00
    0.99985972613066720349E+00
    0.99980018367259082535E+00
    0.99958161398603173620E+00
    0.99954360617201809536E+00
    0.99977109958906074105E+00
    0.99980230061001507114E+00
    0.99991424799440997706E+00
    0.99993077188840806535E+00
    0.99997044582061145324E+00
    0.99997264176543565473E+00
    0.99993966233256270648E+00
    0.99993806299537391080E+00
    0.99988447109947109492E+00
    0.99987918133464315229E+00
    0.99852075367169057518E+00
    0.99809040518683123100E+00
    0.99615993632149280046E+00
    0.99616019891817719767E+00
    0.99809031958384020200E+00
    0.99852041730078777704E+00
    0.99932613737388542585E+00
    0.99938845314894442229E+00
    0.99972577027725761933E+00
    0.99972591272186916989E+00
    0.99938859484602271532E+00
    0.99932623124125907754E+00
    0.99892037616096640562E+00
    0.99892035642956122921E+00
    0.99999215870200697243E+00
    0.99999313846174520126E+00
    0.99998760898087779569E+00
    0.99999021812150312716E+00
    0.99999324488906771169E+00
    0.99999223887233257280E+00
    0.99999513256168437447E+00
    0.99999445967072297936E+00
    0.99999505133912869326E+00
    0.99999354758674363630E+00
    0.99999548475255362057E+00
    0.99999530672557779276E+00
    0.99999402459847153146E+00
    0.99999364755861774867E+00
    0.99997563116737830935E+00
    0.99998057140992013814E+00
    0.99996623269695428249E+00
    0.99997601958631798791E+00
    0.99998666244347489407E+00
    0.99998885489508115842E+00
    0.99999294453982312536E+00
    0.99999198951085477294E+00
    0.99999376467264067259E+00
    0.99999206114972472026E+00
    0.99999128924574676169E+00
    0.99998811913166962828E+00
    0.99998817175173038141E+00
    0.99998885404301074420E+00
    0.99989484873869927117E+00
    0.99990095671403722566E+00
    0.99981350277339842147E+00
    0.99985365385889746204E+00
    0.99993217799386802103E+00
    0.99995901411265553094E+00
    0.99998082800148158089E+00
    0.99997853289996219139E+00
    0.99998865601515318779E+00
    0.99998660762279933945E+00
    0.99996917251250805325E+00
    0.99995431715842197917E+00
    0.99995079422456756291E+00
    0.99995646095799894937E+00
    0.99959708018754411807E+00
    0.99966065429307759960E+00
    0.99941610115346590781E+00
    0.99957321959662670530E+00
    0.99979683956648246479E+00
    0.99988751271435460932E+00
    0.99994553150189768864E+00
    0.99993025883269703868E+00
    0.99996278787540604505E+00
    0.99995125331121192946E+00
    0.99988320905541239192E+00
    0.99981584723853256236E+00
    0.99983258154396914552E+00
    0.99985823601176249120E+00
    0.99994216445984407393E+00
    0.99995842429517389771E+00
    0.99993343600362627477E+00
    0.99995616605450265979E+00
    0.99997698936259782343E+00
    0.99998415702376908243E+00
    0.99998983643166972080E+00
    0.99998807462205785423E+00
    0.99999093137469929893E+00
    0.99998844721378343792E+00
    0.99998267391404194182E+00
    0.99997220249593909980E+00
    0.99997772808116935916E+00
    0.99998077918468775138E+00
    0.99990536846714761499E+00
    0.99993844020916844428E+00
    0.99991048577533203634E+00
    0.99994460114731209543E+00
    0.99997071349520350036E+00
    0.99998173784662292007E+00
    0.99998751590009626877E+00
    0.99998435911338867665E+00
    0.99998757694615625358E+00
    0.99998383833628090578E+00
    0.99997293089188998838E+00
    0.99995246743515864285E+00
    0.99996806445728692037E+00
    0.99997386508447794196E+00
    0.99897401842601296629E+00
    0.99922544813277858200E+00
    0.99878827929967328725E+00
    0.99917109248524171861E+00
    0.99959302860931431578E+00
    0.99978965195952640421E+00
    0.99989169479761874637E+00
    0.99984541045298735984E+00
    0.99991038399059617436E+00
    0.99987343562164532340E+00
    0.99970324410393518466E+00
    0.99950106794343696048E+00
    0.99961555995541384601E+00
    0.99968713748278759113E+00
    0.99827086391743258265E+00
    0.99882407252770122330E+00
    0.99833918315254699394E+00
    0.99893276211581061297E+00
    0.99945794305713975270E+00
    0.99973669556812261305E+00
    0.99985441795649032670E+00
    0.99977016168847110400E+00
    0.99985250795158098214E+00
    0.99977748064580196363E+00
    0.99949648188404172089E+00
    0.99910001733665998458E+00
    0.99941055829032099389E+00
    0.99953819289994827457E+00
    0.99874249279761706521E+00
    0.99871863760709689295E+00
    0.99763668689670170764E+00
    0.99802291787696995051E+00
    0.99903175183595893660E+00
    0.99937744710777487445E+00
    0.99970813507091549344E+00
    0.99967881016216564305E+00
    0.99984454155865809533E+00
    0.99981910755008851499E+00
    0.99957535361848592892E+00
    0.99942988854602388127E+00
    0.99932822430128465108E+00
    0.99938672379072157614E+00
    0.99480041993470402772E+00
    0.99535168385871752861E+00
    0.99219960862782841104E+00
    0.99395268804143988017E+00
    0.99694514741230377819E+00
    0.99817903728329449020E+00
    0.99908618582319652646E+00
    0.99887816173740950898E+00
    0.99940094057308426212E+00
    0.99924766057499192495E+00
    0.99828684212485452321E+00
    0.99750204862627966929E+00
    0.99755193858144985963E+00
    0.99786068128954807932E+00
    0.98752373480271959938E+00
    0.98619745366503341888E+00
    0.97259684743144969588E+00
    0.97742117770964631607E+00
    0.98906828085505560377E+00
    0.99265520843142651675E+00
    0.99646709159775304077E+00
    0.99634108247093666755E+00
    0.99822266686183125373E+00
    0.99805552486657511668E+00
    0.99562664757096619450E+00
    0.99452002118028792754E+00
    0.99279805312813973472E+00
    0.99328829834380161223E+00
    0.93728239648246092219E+00
    0.94677938559372032401E+00
    0.91375028253008061530E+00
    0.93344093303690134356E+00
    0.96502946518322829661E+00
    0.97788263483997406311E+00
    0.98837809471337390033E+00
    0.98638586076857537321E+00
    0.99256526165888658841E+00
    0.99102550471253092468E+00
    0.98014911306641827604E+00
    0.97091385147867703687E+00
    0.97166696527731444277E+00
    0.97512235156104343226E+00
    0.98632996222387070429E+00
    0.98908084797234196994E+00
    0.98345450703933678938E+00
    0.98797238310704516007E+00
    0.99370450462867643271E+00
    0.99649111195040329658E+00
    0.99810745016549984321E+00
    0.99742169814477610323E+00
    0.99846877511105702752E+00
    0.99793743181795835362E+00
    0.99548513432153074021E+00
    0.99293198743136867890E+00
    0.99417818364011467658E+00
    0.99511164660427753326E+00
    0.97667655940131026249E+00
    0.98321529486309211521E+00
    0.97714220068676760356E+00
    0.98437911307368919367E+00
    0.99150812341418048668E+00
    0.99555604442519896047E+00
    0.99741340568105774089E+00
    0.99609772776837357533E+00
    0.99741127999960121908E+00
    0.99627480739693929923E+00
    0.99218829263049124201E+00
    0.98695977469539064586E+00
    0.99092273579628931124E+00
    0.99266557577592262618E+00
    0.86689253819343692342E+00
    0.89121058205346259662E+00
    0.84770994745664152159E+00
    0.88041132091244833635E+00
    0.93117432528444554762E+00
    0.95761117874849244203E+00
    0.97560735904816509034E+00
    0.96862960301056211243E+00
    0.98050619416351814106E+00
    0.97497490861738378420E+00
    0.94956931858657522838E+00
    0.92455779074202359968E+00
    0.93616070631660752710E+00
    0.94489868614165140048E+00
    0.80529441745116492335E+00
    0.84665932040721803009E+00
    0.80652373908816565873E+00
    0.85137692658656161093E+00
    0.90929854757779204899E+00
    0.94654060817095575509E+00
    0.96654524863775570509E+00
    0.95273590564214694076E+00
    0.96683194438157238348E+00
    0.95502301856965032822E+00
    0.91647388710554189561E+00
    0.87287836522773820658E+00
    0.90435286658603131205E+00
    0.91936260367665911808E+00
    0.99999260634198550157E+00
    0.99999313386659083314E+00
    0.99998977374412789665E+00
    0.99998772070670105538E+00
    0.99999300041549765705E+00
    0.99999198723670768008E+00
    0.99999512562852721498E+00
    0.99999518610712423428E+00
    0.99999344078151231052E+00
    0.99999516728852677616E+00
    0.99999458781770100835E+00
    0.99999515499035351862E+00
    0.99999348778791519177E+00
    0.99999380217801780990E+00
    0.99995930828237267196E+00
    0.99993220190829379401E+00
    0.99985326620645331719E+00
    0.99981364164072383804E+00
    0.99990090411375309731E+00
    0.99989468721420060593E+00
    0.99995415469585580137E+00
    0.99996903954347193810E+00
    0.99998659613666907031E+00
    0.99998897304898315408E+00
    0.99997866273499347312E+00
    0.99998087504937205328E+00
    0.99995644822968432486E+00
    0.99995075864178695202E+00
    0.99998924411121759004E+00
    0.99998656688089970768E+00
    0.99997555844301966310E+00
    0.99996633737147366805E+00
    0.99998045125627632590E+00
    0.99997546420412308787E+00
    0.99998789368586893378E+00
    0.99999097872714115542E+00
    0.99999192226723443433E+00
    0.99999386104364684780E+00
    0.99999215509527561441E+00
    0.99999293195293181835E+00
    0.99998874284327110562E+00
    0.99998798760007068243E+00
    0.99988782350693938827E+00
    0.99979687000200179181E+00
    0.99957282984120965352E+00
    0.99941623866906437179E+00
    0.99966060444528015427E+00
    0.99959692703019642490E+00
    0.99981568009885180004E+00
    0.99988308739710507478E+00
    0.99995127587187948581E+00
    0.99996312434562095728E+00
    0.99993039862328769729E+00
    0.99994558040613523708E+00
    0.99985822814547020698E+00
    0.99983255020481298647E+00
    0.99937776106301401402E+00
    0.99903177656338038037E+00
    0.99802251705278255400E+00
    0.99763680647317398709E+00
    0.99871853679430044881E+00
    0.99874230091321103409E+00
    0.99942970357237992385E+00
    0.99957521873863663942E+00
    0.99981912803073402785E+00
    0.99984486598494326515E+00
    0.99967893990616396582E+00
    0.99970819708149372129E+00
    0.99938669990528428144E+00
    0.99932816905533383700E+00
    0.99265553495037317511E+00
    0.98906831715653198422E+00
    0.97742079690337102527E+00
    0.97259697580901394165E+00
    0.98619733384325680703E+00
    0.98752346511266797524E+00
    0.99451988447424644058E+00
    0.99562653502033071629E+00
    0.99805557074511652704E+00
    0.99822298845695855984E+00
    0.99634121483684612297E+00
    0.99646714836005823024E+00
    0.99328827906412919813E+00
    0.99279800006763097020E+00
    0.99817935782231403952E+00
    0.99694517832804951940E+00
    0.99395229175360977347E+00
    0.99219973786997861520E+00
    0.99535162786477138219E+00
    0.99480026943568944375E+00
    0.99750187105057297465E+00
    0.99828672000036344780E+00
    0.99924769812388425372E+00
    0.99940127921021448820E+00
    0.99887830111636133346E+00
    0.99908624987625671565E+00
    0.99786066925606964340E+00
    0.99755190176536934210E+00
    0.97788296353929382576E+00
    0.96502952190398783028E+00
    0.93344059851915728299E+00
    0.91375044741090372113E+00
    0.94677935938759272272E+00
    0.93728228274255886987E+00
    0.97091369116059522693E+00
    0.98014901139904986316E+00
    0.99102556152823650937E+00
    0.99256560843118901705E+00
    0.98638601130035707953E+00
    0.98837815991617106182E+00
    0.97512235845769512643E+00
    0.97166694782379603446E+00
    0.99998456183836448297E+00
    0.99997690590690446744E+00
    0.99995569967911090981E+00
    0.99993353845426669047E+00
    0.99995831299660775660E+00
    0.99994199923648185990E+00
    0.99997195997079590946E+00
    0.99998238704318986869E+00
    0.99998849373890141834E+00
    0.99999127159411871357E+00
    0.99998821822120187441E+00
    0.99998974991619782315E+00
    0.99998068832293252051E+00
    0.99997756487377120749E+00
    0.99978996368874373246E+00
    0.99959305950174537347E+00
    0.99917070068355873236E+00
    0.99878841533853512935E+00
    0.99922539872727100807E+00
    0.99897386834453483218E+00
    0.99950089965281285753E+00
    0.99970312937884120430E+00
    0.99987347581091590154E+00
    0.99991073007793274119E+00
    0.99984555502879068900E+00
    0.99989174337968778072E+00
    0.99968713169235690064E+00
    0.99961553085889376380E+00
    0.99998187637272428763E+00
    0.99997059718443626064E+00
    0.99994413529246040095E+00
    0.99991055715523891045E+00
    0.99993832591991749226E+00
    0.99990519758594231803E+00
    0.99995221901381026175E+00
    0.99997266041515364687E+00
    0.99998393765674153943E+00
    0.99998799449401176709E+00
    0.99998450389010040684E+00
    0.99998735545306705053E+00
    0.99997377753344096618E+00
    0.99996790923475320501E+00
    0.99973658471679405224E+00
    0.99945785338340875636E+00
    0.99893232436150236619E+00
    0.99833924907081639244E+00
    0.99882400244382540944E+00
    0.99827070806748319232E+00
    0.99909984605003487879E+00
    0.99949636295783139683E+00
    0.99977752008689679819E+00
    0.99985284741167834710E+00
    0.99977027591747502644E+00
    0.99985436510867886639E+00
    0.99953815471909934764E+00
    0.99941051257286073195E+00
    0.99649143286301289368E+00
    0.99370453661760649311E+00
    0.98797198695698451587E+00
    0.98345463014285439129E+00
    0.98908079130381076904E+00
    0.98632981275599074245E+00
    0.99293181105769678929E+00
    0.99548501588166748988E+00
    0.99793747706926871910E+00
    0.99846911900880297441E+00
    0.99742184056662341884E+00
    0.99810751429662636358E+00
    0.99511163633349586366E+00
    0.99417814817973182429E+00
    0.95761149897959285671E+00
    0.93117439394215573145E+00
    0.88041102892008005210E+00
    0.84771009744088687832E+00
    0.89121057019961780199E+00
    0.86689248562184384461E+00
    0.92455766079991852369E+00
    0.94956923120381808712E+00
    0.97497497193908511104E+00
    0.98050653602548465404E+00
    0.96862975246868565637E+00
    0.97560742066419936513E+00