# vtk DataFile Version 3.0
LAPLACIEN  2D
ASCII
DATASET UNSTRUCTURED_GRID
 POINTS        1857  float
   3.1250000000000000E-002  0.93750000000000000        0.0000000000000000     
   6.2500000000000000E-002  0.93750000000000000        0.0000000000000000     
   6.2500000000000000E-002  0.96875000000000000        0.0000000000000000     
   1.8749999999999999E-002  0.95625000000000004        0.0000000000000000     
   4.0625000000000001E-002  0.95937499999999998        0.0000000000000000     
   4.3749999999999997E-002  0.98124999999999996        0.0000000000000000     
   2.1874999999999999E-002  0.97812500000000002        0.0000000000000000     
   9.3750000000000000E-002  0.93750000000000000        0.0000000000000000     
  0.12500000000000000       0.93750000000000000        0.0000000000000000     
  0.12500000000000000       0.96875000000000000        0.0000000000000000     
   8.1250000000000003E-002  0.95625000000000004        0.0000000000000000     
  0.10312499999999999       0.95937499999999998        0.0000000000000000     
  0.10625000000000000       0.98124999999999996        0.0000000000000000     
   8.4375000000000006E-002  0.97812500000000002        0.0000000000000000     
   3.1250000000000000E-002  0.87500000000000000        0.0000000000000000     
   6.2500000000000000E-002  0.87500000000000000        0.0000000000000000     
   6.2500000000000000E-002  0.90625000000000000        0.0000000000000000     
   1.8749999999999999E-002  0.89375000000000004        0.0000000000000000     
   4.0625000000000001E-002  0.89687499999999998        0.0000000000000000     
   4.3749999999999997E-002  0.91874999999999996        0.0000000000000000     
   2.1874999999999999E-002  0.91562500000000002        0.0000000000000000     
   9.3750000000000000E-002  0.87500000000000000        0.0000000000000000     
  0.12500000000000000       0.87500000000000000        0.0000000000000000     
  0.12500000000000000       0.90625000000000000        0.0000000000000000     
   8.1250000000000003E-002  0.89375000000000004        0.0000000000000000     
  0.10312499999999999       0.89687499999999998        0.0000000000000000     
  0.10625000000000000       0.91874999999999996        0.0000000000000000     
   8.4375000000000006E-002  0.91562500000000002        0.0000000000000000     
  0.15625000000000000       0.93750000000000000        0.0000000000000000     
  0.18750000000000000       0.93750000000000000        0.0000000000000000     
  0.18750000000000000       0.96875000000000000        0.0000000000000000     
  0.14374999999999999       0.95625000000000004        0.0000000000000000     
  0.16562499999999999       0.95937499999999998        0.0000000000000000     
  0.16875000000000001       0.98124999999999996        0.0000000000000000     
  0.14687500000000001       0.97812500000000002        0.0000000000000000     
  0.21875000000000000       0.93750000000000000        0.0000000000000000     
  0.25000000000000000       0.93750000000000000        0.0000000000000000     
  0.25000000000000000       0.96875000000000000        0.0000000000000000     
  0.20624999999999999       0.95625000000000004        0.0000000000000000     
  0.22812499999999999       0.95937499999999998        0.0000000000000000     
  0.23125000000000001       0.98124999999999996        0.0000000000000000     
  0.20937500000000001       0.97812500000000002        0.0000000000000000     
  0.15625000000000000       0.87500000000000000        0.0000000000000000     
  0.18750000000000000       0.87500000000000000        0.0000000000000000     
  0.18750000000000000       0.90625000000000000        0.0000000000000000     
  0.14374999999999999       0.89375000000000004        0.0000000000000000     
  0.16562499999999999       0.89687499999999998        0.0000000000000000     
  0.16875000000000001       0.91874999999999996        0.0000000000000000     
  0.14687500000000001       0.91562500000000002        0.0000000000000000     
  0.21875000000000000       0.87500000000000000        0.0000000000000000     
  0.25000000000000000       0.87500000000000000        0.0000000000000000     
  0.25000000000000000       0.90625000000000000        0.0000000000000000     
  0.20624999999999999       0.89375000000000004        0.0000000000000000     
  0.22812499999999999       0.89687499999999998        0.0000000000000000     
  0.23125000000000001       0.91874999999999996        0.0000000000000000     
  0.20937500000000001       0.91562500000000002        0.0000000000000000     
   3.1250000000000000E-002  0.81250000000000000        0.0000000000000000     
   6.2500000000000000E-002  0.81250000000000000        0.0000000000000000     
   6.2500000000000000E-002  0.84375000000000000        0.0000000000000000     
   1.8749999999999999E-002  0.83125000000000004        0.0000000000000000     
   4.0625000000000001E-002  0.83437499999999998        0.0000000000000000     
   4.3749999999999997E-002  0.85624999999999996        0.0000000000000000     
   2.1874999999999999E-002  0.85312500000000002        0.0000000000000000     
   9.3750000000000000E-002  0.81250000000000000        0.0000000000000000     
  0.12500000000000000       0.81250000000000000        0.0000000000000000     
  0.12500000000000000       0.84375000000000000        0.0000000000000000     
   8.1250000000000003E-002  0.83125000000000004        0.0000000000000000     
  0.10312499999999999       0.83437499999999998        0.0000000000000000     
  0.10625000000000000       0.85624999999999996        0.0000000000000000     
   8.4375000000000006E-002  0.85312500000000002        0.0000000000000000     
   3.1250000000000000E-002  0.75000000000000000        0.0000000000000000     
   6.2500000000000000E-002  0.75000000000000000        0.0000000000000000     
   6.2500000000000000E-002  0.78125000000000000        0.0000000000000000     
   1.8749999999999999E-002  0.76875000000000004        0.0000000000000000     
   4.0625000000000001E-002  0.77187499999999998        0.0000000000000000     
   4.3749999999999997E-002  0.79374999999999996        0.0000000000000000     
   2.1874999999999999E-002  0.79062500000000002        0.0000000000000000     
   9.3750000000000000E-002  0.75000000000000000        0.0000000000000000     
  0.12500000000000000       0.75000000000000000        0.0000000000000000     
  0.12500000000000000       0.78125000000000000        0.0000000000000000     
   8.1250000000000003E-002  0.76875000000000004        0.0000000000000000     
  0.10312499999999999       0.77187499999999998        0.0000000000000000     
  0.10625000000000000       0.79374999999999996        0.0000000000000000     
   8.4375000000000006E-002  0.79062500000000002        0.0000000000000000     
  0.15625000000000000       0.81250000000000000        0.0000000000000000     
  0.18750000000000000       0.81250000000000000        0.0000000000000000     
  0.18750000000000000       0.84375000000000000        0.0000000000000000     
  0.14374999999999999       0.83125000000000004        0.0000000000000000     
  0.16562499999999999       0.83437499999999998        0.0000000000000000     
  0.16875000000000001       0.85624999999999996        0.0000000000000000     
  0.14687500000000001       0.85312500000000002        0.0000000000000000     
  0.21875000000000000       0.81250000000000000        0.0000000000000000     
  0.25000000000000000       0.81250000000000000        0.0000000000000000     
  0.25000000000000000       0.84375000000000000        0.0000000000000000     
  0.20624999999999999       0.83125000000000004        0.0000000000000000     
  0.22812499999999999       0.83437499999999998        0.0000000000000000     
  0.23125000000000001       0.85624999999999996        0.0000000000000000     
  0.20937500000000001       0.85312500000000002        0.0000000000000000     
  0.15625000000000000       0.75000000000000000        0.0000000000000000     
  0.18750000000000000       0.75000000000000000        0.0000000000000000     
  0.18750000000000000       0.78125000000000000        0.0000000000000000     
  0.14374999999999999       0.76875000000000004        0.0000000000000000     
  0.16562499999999999       0.77187499999999998        0.0000000000000000     
  0.16875000000000001       0.79374999999999996        0.0000000000000000     
  0.14687500000000001       0.79062500000000002        0.0000000000000000     
  0.21875000000000000       0.75000000000000000        0.0000000000000000     
  0.25000000000000000       0.75000000000000000        0.0000000000000000     
  0.25000000000000000       0.78125000000000000        0.0000000000000000     
  0.20624999999999999       0.76875000000000004        0.0000000000000000     
  0.22812499999999999       0.77187499999999998        0.0000000000000000     
  0.23125000000000001       0.79374999999999996        0.0000000000000000     
  0.20937500000000001       0.79062500000000002        0.0000000000000000     
  0.28125000000000000       0.93750000000000000        0.0000000000000000     
  0.31250000000000000       0.93750000000000000        0.0000000000000000     
  0.31250000000000000       0.96875000000000000        0.0000000000000000     
  0.26874999999999999       0.95625000000000004        0.0000000000000000     
  0.29062500000000002       0.95937499999999998        0.0000000000000000     
  0.29375000000000001       0.98124999999999996        0.0000000000000000     
  0.27187499999999998       0.97812500000000002        0.0000000000000000     
  0.34375000000000000       0.93750000000000000        0.0000000000000000     
  0.37500000000000000       0.93750000000000000        0.0000000000000000     
  0.37500000000000000       0.96875000000000000        0.0000000000000000     
  0.33124999999999999       0.95625000000000004        0.0000000000000000     
  0.35312500000000002       0.95937499999999998        0.0000000000000000     
  0.35625000000000001       0.98124999999999996        0.0000000000000000     
[...]
 CELL_DATA        3584
 SCALARS Endothelial_cells float
 LOOKUP_TABLE default
    0.99999388551302104133E+00
    0.99999577104276315964E+00
    0.99999688877349190985E+00
    0.99999698976882045454E+00
    0.99999581309195106904E+00
    0.99999380161436746128E+00
    0.99999550769030887132E+00
    0.99999484858741605198E+00
    0.99999593223003802045E+00
    0.99999622582809311044E+00
    0.99999512394207468180E+00
    0.99999558214342421092E+00
    0.99999460752510849204E+00
    0.99999457303209249304E+00
    0.99999787474592183312E+00
    0.99999831988482912326E+00
    0.99999783343558679150E+00
    0.99999752358223548132E+00
    0.99999634710580354025E+00
    0.99999378692974916216E+00
    0.99999575611746449599E+00
    0.99999519508355783071E+00
    0.99999550231753886465E+00
    0.99999422984608588028E+00
    0.99999651651869148061E+00
    0.99999711756268272467E+00
    0.99999636275612291403E+00
    0.99999558138850319633E+00
    0.99999415917266243348E+00
    0.99999634373777368523E+00
    0.99999738129990334290E+00
    0.99999807836342236023E+00
    0.99999845271472509456E+00
    0.99999809811851059216E+00
    0.99999731258518631538E+00
    0.99999637941335040026E+00
    0.99999380785868619004E+00
    0.99999552905863919872E+00
    0.99999534098204001520E+00
    0.99999587577248405523E+00
    0.99999556545917656081E+00
    0.99999636320260243405E+00
    0.99999822714059727335E+00
    0.99999865698454304397E+00
    0.99999783963901012207E+00
    0.99999810723479409802E+00
    0.99999866826525907193E+00
    0.99999805269826702592E+00
    0.99999815742848763289E+00
    0.99999857256956925511E+00
    0.99999798681867713146E+00
    0.99999848068782049015E+00
    0.99999884426593488307E+00
    0.99999814411214860144E+00
    0.99999788942119116619E+00
    0.99999786927567124728E+00
    0.99999799635113562069E+00
    0.99999836065610192559E+00
    0.99999766399484246726E+00
    0.99999745542932316766E+00
    0.99999652239566749756E+00
    0.99999382895560628981E+00
    0.99999587193371186622E+00
    0.99999545112176679851E+00
    0.99999559106128765862E+00
    0.99999417744858931645E+00
    0.99999679151324472048E+00
    0.99999746725344307308E+00
    0.99999673294479773933E+00
    0.99999609860661764493E+00
    0.99999720982586104423E+00
    0.99999750050624891529E+00
    0.99999605964091664578E+00
    0.99999629589416860753E+00
    0.99999600502605778818E+00
    0.99999357727850268773E+00
    0.99999576644423393557E+00
    0.99999524775325498993E+00
    0.99999550769459510935E+00
    0.99999413658417579676E+00
    0.99999665060207731937E+00
    0.99999726209625150464E+00
    0.99999613178627710930E+00
    0.99999552006201586352E+00
    0.99999676575275042723E+00
    0.99999698366973921448E+00
    0.99999387519617743969E+00
    0.99999450966029279630E+00
    0.99999718833937223383E+00
    0.99999700591720430687E+00
    0.99999775697254167373E+00
    0.99999846277656800897E+00
    0.99999796278939867555E+00
    0.99999823738513637927E+00
    0.99999864899979662436E+00
    0.99999782923807212232E+00
    0.99999730270759024098E+00
    0.99999732181032907619E+00
    0.99998264053937768736E+00
    0.99998212639290851023E+00
    0.99996354836310497038E+00
    0.99996922487872608176E+00
    0.99998594105274507537E+00
    0.99998998733135469053E+00
    0.99999487123067654082E+00
    0.99999545571711601077E+00
    0.99999670168433352213E+00
    0.99999676108020174592E+00
    0.99999482800355088408E+00
    0.99999238762311526418E+00
    0.99999037891184872073E+00
    0.99999100897746329153E+00
    0.99999416691741527252E+00
    0.99999630098700187375E+00
    0.99999717863621684355E+00
    0.99999791535083137894E+00
    0.99999827601237833985E+00
    0.99999794518484885764E+00
    0.99999746928607402552E+00
    0.99999649233957499384E+00
    0.99999399378151521134E+00
    0.99999565910011634084E+00
    0.99999540389278018804E+00
    0.99999590049288644700E+00
    0.99999558143608613392E+00
    0.99999624056284830420E+00
    0.99999720123124191673E+00
    0.99999719965524336285E+00
    0.99999416332310975264E+00
    0.99999405710908284561E+00
    0.99999694709874409337E+00
    0.99999655482531868422E+00
    0.99999774737743440944E+00
    0.99999854961433443101E+00
    0.99999806657241563368E+00
    0.99999826948229197932E+00
    0.99999859136017821282E+00
    0.99999777859721894480E+00
    0.99999733345432939569E+00
    0.99999730589460800179E+00
    0.99999404581433815054E+00
    0.99999587007016765838E+00
    0.99999590595325238418E+00
    0.99999621223971679740E+00
    0.99999737143023004204E+00
    0.99999704759819918465E+00
    0.99999716557606943557E+00
    0.99999638233003596000E+00
    0.99999396103744309094E+00
    0.99999558058941639960E+00
    0.99999530669317082676E+00
    0.99999590037321350877E+00
    0.99999528021847772230E+00
    0.99999585878353802748E+00
    0.99999024681907111578E+00
    0.99998595634641862517E+00
    0.99996884624141890718E+00
    0.99996369670848517242E+00
    0.99998205584262334078E+00
    0.99998245153165954413E+00
    0.99999224775487283168E+00
    0.99999468607578445578E+00
    0.99999667833484195967E+00
    0.99999699035528655244E+00
    0.99999557424230101077E+00
    0.99999492257401545459E+00
    0.99999099652507039693E+00
    0.99999034401260877836E+00
    0.99998023945254654876E+00
    0.99997497548617597651E+00
    0.99994614953465221774E+00
    0.99994641615055313011E+00
    0.99997491987240660904E+00
    0.99997995703198883088E+00
    0.99999121701350435210E+00
    0.99999283521338999670E+00
    0.99999581544941884559E+00
    0.99999597737585599333E+00
    0.99999296842641338667E+00
    0.99999131387245343561E+00
    0.99998601929004959921E+00
    0.99998600714429308756E+00
    0.99981815469581925004E+00
    0.99978903915593975160E+00
    0.99957682334790531886E+00
    0.99961288422704763779E+00
    0.99981591618242926511E+00
    0.99987083960052058895E+00
    0.99994334148291819098E+00
    0.99994481654880096322E+00
    0.99997483987261193139E+00
    0.99997312693530671091E+00
    0.99993692093319352932E+00
    0.99992162841662246553E+00
    0.99988917939058608031E+00
    0.99989404336223974834E+00
    0.99987114053122083668E+00
    0.99981593731378504142E+00
    0.99961248788813239496E+00
    0.99957696155934139259E+00
    0.99978893213534447693E+00
    0.99981789561017286871E+00
    0.99992149423579290701E+00
    0.99993678787233231109E+00
    0.99997311541557043491E+00
    0.99997513519617842181E+00
    0.99994496608084348921E+00
    0.99994342687539716774E+00
    0.99989401990080439830E+00
    0.99988912457235312736E+00
    0.99861601869649652130E+00
    0.99820953427892911147E+00
    0.99638127878289972639E+00
    0.99638154209193341426E+00
    0.99820944976445125096E+00
    0.99861568372958753326E+00
    0.99937316159021916118E+00
    0.99943163128352652258E+00
    0.99974670793816888814E+00
    0.99974685173760524659E+00
    0.99943177355048740118E+00
    0.99937325551319666772E+00
    0.99899227325198891592E+00
    0.99899225366125010694E+00
    0.99999283952708306611E+00
    0.99999375733361717256E+00
    0.99998871571975511685E+00
    0.99999106839240603506E+00
    0.99999367364108149303E+00
    0.99999250978747400431E+00
    0.99999531102824457118E+00
    0.99999464206645038988E+00
    0.99999518442990098510E+00
    0.99999368209663963558E+00
    0.99999571127516884150E+00
    0.99999561730617181343E+00
    0.99999435399058089757E+00
    0.99999394627675330938E+00
    0.99997784577164983144E+00
    0.99998238093938052184E+00
    0.99996924648947493885E+00
    0.99997818970563612240E+00
    0.99998774676618584767E+00
    0.99998951142526160130E+00
    0.99999339484449389914E+00
    0.99999245365569155997E+00
    0.99999405287877929371E+00
    0.99999236925199719295E+00
    0.99999196175686655419E+00
    0.99998915765296958469E+00
    0.99998909291499660235E+00
    0.99998964537682166753E+00
    0.99990362414784850209E+00
    0.99990930664663768557E+00
    0.99982828894371555961E+00
    0.99986558654954293957E+00
    0.99993805112144995562E+00
    0.99996264023795922160E+00
    0.99998256410483199463E+00
    0.99998054302117067582E+00
    0.99998966575868497575E+00
    0.99998783490646270256E+00
    0.99997204507747172730E+00
    0.99995837567242473742E+00
    0.99995512773973460607E+00
    0.99996032471543050413E+00
    0.99962673059498752259E+00
    0.99968608598705233081E+00
    0.99945736805495799526E+00
    0.99960456798562513647E+00
    0.99981278375201454445E+00
    0.99989678573064000311E+00
    0.99995025801477410710E+00
    0.99993626985035821697E+00
    0.99996609308513950687E+00
    0.99995553222701949458E+00
    0.99989291080363740249E+00
    0.99983045600192033131E+00
    0.99984595383790719758E+00
    0.99986974381211990437E+00
    0.99994719715295921070E+00
    0.99996215623046302845E+00
    0.99993915144818146246E+00
    0.99996005214717675891E+00
    0.99997897228765098010E+00
    0.99998529570411920364E+00
    0.99999064710010332480E+00
    0.99998897516882379044E+00
    0.99999157559770923687E+00
    0.99998917763614847409E+00
    0.99998418064826921636E+00
    0.99997469261878113578E+00
    0.99997962323433986498E+00
    0.99998234374910144329E+00
    0.99991330993448301889E+00
    0.99994381850537206180E+00
    0.99991800851726930777E+00
    0.99994944592384649162E+00
    0.99997325733807695958E+00
    0.99998311733580569349E+00
    0.99998857592518208826E+00
    0.99998564039228221567E+00
    0.99998858575929916448E+00
    0.99998504142090671731E+00
    0.99997532436503011599E+00
    0.99995664648914739381E+00
    0.99997081835032619601E+00
    0.99997606428079399699E+00
    0.99904216186552052825E+00
    0.99927856221097033362E+00
    0.99886705505687145568E+00
    0.99922771001780807953E+00
    0.99962281248238349374E+00
    0.99980605056953597565E+00
    0.99990062730308115757E+00
    0.99985782982535442720E+00
    0.99991791149618602930E+00
    0.99988376514778676274E+00
    0.99972574434327787785E+00
    0.99953694261300185531E+00
    0.99964387704768098430E+00
    0.99971071006377354440E+00
    0.99837869591552785842E+00
    0.99890090334531700389E+00
    0.99844308399524950293E+00
    0.99900354319590778385E+00
    0.99949645349017424145E+00
    0.99975679560861852035E+00
    0.99986613483110298173E+00
    0.99978794592757769255E+00
    0.99986440411685439944E+00
    0.99979473803401019971E+00
    0.99953258359001406763E+00
    0.99916074067807802983E+00
    0.99945205598132902391E+00
    0.99957163233272516845E+00
    0.99882485720361324777E+00
    0.99880218857932034915E+00
    0.99778055511243046727E+00
    0.99814614204837626144E+00
    0.99909665088578214487E+00
    0.99942125231100908955E+00
    0.99973020582302130066E+00
    0.99970293535674070728E+00
    0.99985703453038055066E+00
    0.99983344976157451089E+00
    0.99960649397603329458E+00
    0.99947039828224815139E+00
    0.99937515719323954944E+00
    0.99943001137794207356E+00
    0.99508587264930614680E+00
    0.99560969068672899862E+00
    0.99260247295806713907E+00
    0.99427758047308667511E+00
    0.99712308172582042598E+00
    0.99829220534680640498E+00
    0.99914743762045266084E+00
    0.99895174081383575349E+00
    0.99944318609597793124E+00
    0.99929940463235922277E+00
    0.99839443688342977001E+00
    0.99765232079645793650E+00
    0.99769911554332402215E+00
    0.99799152175341010462E+00
    0.98811500391897499895E+00
    0.98683896150889660603E+00
    0.97368427507736121651E+00
    0.97839596699380459999E+00
    0.98960488442583660618E+00
    0.99304101858040094708E+00
    0.99667072827346825381E+00
    0.99655133890088576365E+00
    0.99833440927097616413E+00
    0.99817647348125471130E+00
    0.99587257088898450963E+00
    0.99481720628468761625E+00
    0.99317537510759201780E+00
    0.99364534543048543824E+00
    0.93924726241931788540E+00
    0.94862696842722815660E+00
    0.91628149672030256845E+00
    0.93568032571364068151E+00
    0.96640914648447184820E+00
    0.97884584989819856116E+00
    0.98894059647746679342E+00
    0.98703007480145255048E+00
    0.99295374354959697882E+00
    0.99148135183024088679E+00
    0.98102794515495450600E+00
    0.97207955543706947577E+00
    0.97283838641054565244E+00
    0.97618677278093324290E+00
    0.98697407888720423141E+00
    0.98961256674132369593E+00
    0.98420514715027451746E+00
    0.98855137088963029868E+00
    0.99403538224056209316E+00
    0.99669107249553767769E+00
    0.99822368790718885023E+00
    0.99757418735031877510E+00
    0.99856582439067365087E+00
    0.99806340929874137746E+00
    0.99573480442337491958E+00
    0.99330085033856874155E+00
    0.99448883087387907054E+00
    0.99537919477204406249E+00
    0.97766673542934268148E+00
    0.98397188233681209812E+00
    0.97811400307654572384E+00
    0.98509638813947675295E+00
    0.99193433983959222733E+00
    0.99580088266074240355E+00
    0.99756604544871452234E+00
    0.99631594011048174586E+00
    0.99756484490814045785E+00
    0.99648518526778684379E+00
    0.99258599294207006114E+00
    0.98757643351403123777E+00
    0.99137466933009255055E+00
    0.99304333840761793706E+00
    0.87016115583559616731E+00
    0.89419531461558043883E+00
    0.85123882355537761057E+00
    0.88363082894976463511E+00
    0.93341366828027916291E+00
    0.95919649668969919620E+00
    0.97663178261410399372E+00
    0.96988286752439001326E+00
    0.98137156105341893930E+00
    0.97603575889127269782E+00
    0.95138193064994425185E+00
    0.92697732985082503809E+00
    0.93831034156073955810E+00
    0.94683741032023460704E+00
    0.80907217488223315272E+00
    0.85015655124658406905E+00
    0.81035211422058783803E+00
    0.85493581990785272318E+00
    0.91195646526901075202E+00
    0.94841143504643488082E+00
    0.96785242948972061150E+00
    0.95443341159933914319E+00
    0.96814450468379664727E+00
    0.95667869418547690774E+00
    0.91900334953998030763E+00
    0.87617784977580059902E+00
    0.90712473488051226234E+00
    0.92185305261748140548E+00
    0.99999288359285565253E+00
    0.99999356194791833019E+00
    0.99999062784052450414E+00
    0.99998883060564891512E+00
    0.99999362002787361980E+00
    0.99999267029166405418E+00
    0.99999544296223974449E+00
    0.99999541381080958580E+00
    0.99999356916663550976E+00
    0.99999529473611581398E+00
    0.99999476397291076069E+00
    0.99999534066714168556E+00
    0.99999378126152815849E+00
    0.99999412837231616002E+00
    0.99996293226541355104E+00
    0.99993807417639413160E+00
    0.99986519916120120133E+00
    0.99982842893017165320E+00
    0.99990925497276994527E+00
    0.99990346277296970889E+00
    0.99995821453925015643E+00
    0.99997191139205876542E+00
    0.99998782000954777871E+00
    0.99998998370972824734E+00
    0.99998067314045913090E+00
    0.99998261167523661008E+00
    0.99996031205280466736E+00
    0.99995509248399749858E+00
    0.99998989860598419543E+00
    0.99998765036163772546E+00
    0.99997773142907075972E+00
    0.99996935371140105442E+00
    0.99998226200799766872E+00
    0.99997768116661633897E+00
    0.99998893724063875332E+00
    0.99999165306738313497E+00
    0.99999220951104517141E+00
    0.99999412590039415960E+00
    0.99999261729506849772E+00
    0.99999338648573976585E+00
    0.99998953108966748271E+00
    0.99998890698390729970E+00
    0.99989709493642831006E+00
    0.99981281336187766140E+00
    0.99960417822357017226E+00
    0.99945750649635090035E+00
    0.99968603698488367471E+00
    0.99962657769530594010E+00
    0.99983028970967846583E+00
    0.99989278840196682552E+00
    0.99995555248003442639E+00
    0.99996643089233527846E+00
    0.99993641002786559646E+00
    0.99995030740570756134E+00
    0.99986973584543392679E+00
    0.99984592260458993174E+00
    0.99942156488068467635E+00
    0.99909667493815235151E+00
    0.99814574102021080826E+00
    0.99778067563720518329E+00
    0.99880208868644770881E+00
    0.99882466577277195796E+00
    0.99947021414908487902E+00
    0.99960635838974420952E+00
    0.99983346787437155090E+00
    0.99985735891676186249E+00
    0.99970306497453553796E+00
    0.99973026771569495352E+00
    0.99942998736949395511E+00
    0.99937510208205970752E+00
    0.99304134405664279406E+00
    0.98960491967131125612E+00
    0.97839558444871210785E+00
    0.97368440374759679390E+00
    0.98683884219472906008E+00
    0.98811473470211186321E+00
    0.99481706959197435669E+00
    0.99587245729536000294E+00
    0.99817651751523150949E+00
    0.99833473143963569196E+00
    0.99655147133203592080E+00
    0.99667078493481209289E+00
    0.99364532578536313157E+00
    0.99317532184917312055E+00
    0.99829252466126927601E+00
    0.99712311180836210589E+00
    0.99427718356944050360E+00
    0.99260260279798684380E+00
    0.99560963514116007644E+00
    0.99508572224163749365E+00
    0.99765214357454390370E+00
    0.99839431383738674874E+00
    0.99929944025813999264E+00
    0.99944352502063948940E+00
    0.99895188006691992832E+00
    0.99914750146606479131E+00
    0.99799150932511770939E+00
    0.99769907849703165503E+00
    0.97884617719335487163E+00
    0.96640920029694576954E+00
    0.93567998465762713955E+00
    0.91628165606910283447E+00
    0.94862693935765007858E+00
    0.93924714578392143327E+00
    0.97207939379522700918E+00
    0.98102784154614786072E+00
    0.99148140686381780462E+00
    0.99295409083246044535E+00
    0.98703022483656732700E+00
    0.98894066117597367871E+00
    0.97618677795577857292E+00
    0.97283836715115334925E+00
    0.99998569845474116757E+00
    0.99997888812699575745E+00
    0.99995958821662556115E+00
    0.99993925623579438255E+00
    0.99996204630711826855E+00
    0.99994703417302721604E+00
    0.99997445376245752691E+00
    0.99998389164731371626E+00
    0.99998921308244193007E+00
    0.99999189955000422625E+00
    0.99998911746393548405E+00
    0.99999056813805942134E+00
    0.99998225107768201614E+00
    0.99997945858015713227E+00
    0.99980636086190322054E+00
    0.99962284256044220410E+00
    0.99922731815469034711E+00
    0.99886719198046813872E+00
    0.99927851357655450570E+00
    0.99904201205861742352E+00
    0.99953677494174220097E+00
    0.99972562892145466762E+00
    0.99988380357235995266E+00
    0.99991825913763365818E+00
    0.99985797487328120781E+00
    0.99990067634121349016E+00
    0.99971070412587725862E+00
    0.99964384798130168086E+00
    0.99998326773334089701E+00
    0.99997314436223916356E+00
    0.99994898419302946646E+00
    0.99991808398543557956E+00
    0.99994370615424765791E+00
    0.99991314129422614876E+00
    0.99995640120708806364E+00
    0.99997505150956866871E+00
    0.99998513139661993065E+00
    0.99998898942247804733E+00
    0.99998578345189215177E+00
    0.99998842603884163793E+00
    0.99997597569596852196E+00
    0.99997066209462237563E+00
    0.99975668874397449759E+00
    0.99949636638057060001E+00
    0.99900310771003031363E+00
    0.99844315290522034356E+00
    0.99890083497015369485E+00
    0.99837854073517773301E+00
    0.99916057005137204339E+00
    0.99953246421553454404E+00
    0.99979477589616194688E+00
    0.99986474535544600517E+00
    0.99978806192180957879E+00
    0.99986608520078246176E+00
    0.99957159543927465162E+00
    0.99945201118486803882E+00
    0.99669139237904902373E+00
    0.99403541337506662323E+00
    0.98855097392345414598E+00
    0.98420527073653196748E+00
    0.98961251040409403679E+00
    0.98697392935535199765E+00
    0.99330067404382127449E+00
    0.99573468501608164427E+00
    0.99806345282014108378E+00
    0.99856616875099013519E+00
    0.99757432971820136913E+00
    0.99822375184673406423E+00
    0.99537918408256997882E+00
    0.99448879513427823618E+00
    0.95919681472394235922E+00
    0.93341373110431613558E+00
    0.88363052473922643060E+00
    0.85123895972627672268E+00
    0.89419529292808375143E+00
    0.87016108874840703002E+00
    0.92697719321856497654E+00
    0.95138183873837500748E+00
    0.97603581984512277625E+00
    0.98137190342048052916E+00
    0.96988301569790535961E+00
    0.97663184331637409308E+00