# vtk DataFile Version 3.0
LAPLACIEN  2D
ASCII
DATASET UNSTRUCTURED_GRID
 POINTS        1857  float
   3.1250000000000000E-002  0.93750000000000000        0.0000000000000000     
   6.2500000000000000E-002  0.93750000000000000        0.0000000000000000     
   6.2500000000000000E-002  0.96875000000000000        0.0000000000000000     
   1.8749999999999999E-002  0.95625000000000004        0.0000000000000000     
   4.0625000000000001E-002  0.95937499999999998        0.0000000000000000     
   4.3749999999999997E-002  0.98124999999999996        0.0000000000000000     
   2.1874999999999999E-002  0.97812500000000002        0.0000000000000000     
   9.3750000000000000E-002  0.93750000000000000        0.0000000000000000     
  0.12500000000000000       0.93750000000000000        0.0000000000000000     
  0.12500000000000000       0.96875000000000000        0.0000000000000000     
   8.1250000000000003E-002  0.95625000000000004        0.0000000000000000     
  0.10312499999999999       0.95937499999999998        0.0000000000000000     
  0.10625000000000000       0.98124999999999996        0.0000000000000000     
   8.4375000000000006E-002  0.97812500000000002        0.0000000000000000     
   3.1250000000000000E-002  0.87500000000000000        0.0000000000000000     
   6.2500000000000000E-002  0.87500000000000000        0.0000000000000000     
   6.2500000000000000E-002  0.90625000000000000        0.0000000000000000     
   1.8749999999999999E-002  0.89375000000000004        0.0000000000000000     
   4.0625000000000001E-002  0.89687499999999998        0.0000000000000000     
   4.3749999999999997E-002  0.91874999999999996        0.0000000000000000     
   2.1874999999999999E-002  0.91562500000000002        0.0000000000000000     
   9.3750000000000000E-002  0.87500000000000000        0.0000000000000000     
  0.12500000000000000       0.87500000000000000        0.0000000000000000     
  0.12500000000000000       0.90625000000000000        0.0000000000000000     
   8.1250000000000003E-002  0.89375000000000004        0.0000000000000000     
  0.10312499999999999       0.89687499999999998        0.0000000000000000     
  0.10625000000000000       0.91874999999999996        0.0000000000000000     
   8.4375000000000006E-002  0.91562500000000002        0.0000000000000000     
  0.15625000000000000       0.93750000000000000        0.0000000000000000     
  0.18750000000000000       0.93750000000000000        0.0000000000000000     
  0.18750000000000000       0.96875000000000000        0.0000000000000000     
  0.14374999999999999       0.95625000000000004        0.0000000000000000     
  0.16562499999999999       0.95937499999999998        0.0000000000000000     
  0.16875000000000001       0.98124999999999996        0.0000000000000000     
  0.14687500000000001       0.97812500000000002        0.0000000000000000     
  0.21875000000000000       0.93750000000000000        0.0000000000000000     
  0.25000000000000000       0.93750000000000000        0.0000000000000000     
  0.25000000000000000       0.96875000000000000        0.0000000000000000     
  0.20624999999999999       0.95625000000000004        0.0000000000000000     
  0.22812499999999999       0.95937499999999998        0.0000000000000000     
  0.23125000000000001       0.98124999999999996        0.0000000000000000     
  0.20937500000000001       0.97812500000000002        0.0000000000000000     
  0.15625000000000000       0.87500000000000000        0.0000000000000000     
  0.18750000000000000       0.87500000000000000        0.0000000000000000     
  0.18750000000000000       0.90625000000000000        0.0000000000000000     
  0.14374999999999999       0.89375000000000004        0.0000000000000000     
  0.16562499999999999       0.89687499999999998        0.0000000000000000     
  0.16875000000000001       0.91874999999999996        0.0000000000000000     
  0.14687500000000001       0.91562500000000002        0.0000000000000000     
  0.21875000000000000       0.87500000000000000        0.0000000000000000     
  0.25000000000000000       0.87500000000000000        0.0000000000000000     
  0.25000000000000000       0.90625000000000000        0.0000000000000000     
  0.20624999999999999       0.89375000000000004        0.0000000000000000     
  0.22812499999999999       0.89687499999999998        0.0000000000000000     
  0.23125000000000001       0.91874999999999996        0.0000000000000000     
  0.20937500000000001       0.91562500000000002        0.0000000000000000     
   3.1250000000000000E-002  0.81250000000000000        0.0000000000000000     
   6.2500000000000000E-002  0.81250000000000000        0.0000000000000000     
   6.2500000000000000E-002  0.84375000000000000        0.0000000000000000     
   1.8749999999999999E-002  0.83125000000000004        0.0000000000000000     
   4.0625000000000001E-002  0.83437499999999998        0.0000000000000000     
   4.3749999999999997E-002  0.85624999999999996        0.0000000000000000     
   2.1874999999999999E-002  0.85312500000000002        0.0000000000000000     
   9.3750000000000000E-002  0.81250000000000000        0.0000000000000000     
  0.12500000000000000       0.81250000000000000        0.0000000000000000     
  0.12500000000000000       0.84375000000000000        0.0000000000000000     
   8.1250000000000003E-002  0.83125000000000004        0.0000000000000000     
  0.10312499999999999       0.83437499999999998        0.0000000000000000     
  0.10625000000000000       0.85624999999999996        0.0000000000000000     
   8.4375000000000006E-002  0.85312500000000002        0.0000000000000000     
   3.1250000000000000E-002  0.75000000000000000        0.0000000000000000     
   6.2500000000000000E-002  0.75000000000000000        0.0000000000000000     
   6.2500000000000000E-002  0.78125000000000000        0.0000000000000000     
   1.8749999999999999E-002  0.76875000000000004        0.0000000000000000     
   4.0625000000000001E-002  0.77187499999999998        0.0000000000000000     
   4.3749999999999997E-002  0.79374999999999996        0.0000000000000000     
   2.1874999999999999E-002  0.79062500000000002        0.0000000000000000     
   9.3750000000000000E-002  0.75000000000000000        0.0000000000000000     
  0.12500000000000000       0.75000000000000000        0.0000000000000000     
  0.12500000000000000       0.78125000000000000        0.0000000000000000     
   8.1250000000000003E-002  0.76875000000000004        0.0000000000000000     
  0.10312499999999999       0.77187499999999998        0.0000000000000000     
  0.10625000000000000       0.79374999999999996        0.0000000000000000     
   8.4375000000000006E-002  0.79062500000000002        0.0000000000000000     
  0.15625000000000000       0.81250000000000000        0.0000000000000000     
  0.18750000000000000       0.81250000000000000        0.0000000000000000     
  0.18750000000000000       0.84375000000000000        0.0000000000000000     
  0.14374999999999999       0.83125000000000004        0.0000000000000000     
  0.16562499999999999       0.83437499999999998        0.0000000000000000     
  0.16875000000000001       0.85624999999999996        0.0000000000000000     
  0.14687500000000001       0.85312500000000002        0.0000000000000000     
  0.21875000000000000       0.81250000000000000        0.0000000000000000     
  0.25000000000000000       0.81250000000000000        0.0000000000000000     
  0.25000000000000000       0.84375000000000000        0.0000000000000000     
  0.20624999999999999       0.83125000000000004        0.0000000000000000     
  0.22812499999999999       0.83437499999999998        0.0000000000000000     
  0.23125000000000001       0.85624999999999996        0.0000000000000000     
  0.20937500000000001       0.85312500000000002        0.0000000000000000     
  0.15625000000000000       0.75000000000000000        0.0000000000000000     
  0.18750000000000000       0.75000000000000000        0.0000000000000000     
  0.18750000000000000       0.78125000000000000        0.0000000000000000     
  0.14374999999999999       0.76875000000000004        0.0000000000000000     
  0.16562499999999999       0.77187499999999998        0.0000000000000000     
  0.16875000000000001       0.79374999999999996        0.0000000000000000     
  0.14687500000000001       0.79062500000000002        0.0000000000000000     
  0.21875000000000000       0.75000000000000000        0.0000000000000000     
  0.25000000000000000       0.75000000000000000        0.0000000000000000     
  0.25000000000000000       0.78125000000000000        0.0000000000000000     
  0.20624999999999999       0.76875000000000004        0.0000000000000000     
  0.22812499999999999       0.77187499999999998        0.0000000000000000     
  0.23125000000000001       0.79374999999999996        0.0000000000000000     
  0.20937500000000001       0.79062500000000002        0.0000000000000000     
  0.28125000000000000       0.93750000000000000        0.0000000000000000     
  0.31250000000000000       0.93750000000000000        0.0000000000000000     
  0.31250000000000000       0.96875000000000000        0.0000000000000000     
  0.26874999999999999       0.95625000000000004        0.0000000000000000     
  0.29062500000000002       0.95937499999999998        0.0000000000000000     
  0.29375000000000001       0.98124999999999996        0.0000000000000000     
  0.27187499999999998       0.97812500000000002        0.0000000000000000     
  0.34375000000000000       0.93750000000000000        0.0000000000000000     
  0.37500000000000000       0.93750000000000000        0.0000000000000000     
  0.37500000000000000       0.96875000000000000        0.0000000000000000     
  0.33124999999999999       0.95625000000000004        0.0000000000000000     
  0.35312500000000002       0.95937499999999998        0.0000000000000000     
  0.35625000000000001       0.98124999999999996        0.0000000000000000     
[...]
 CELL_DATA        3584
 SCALARS Endothelial_cells float
 LOOKUP_TABLE default
    0.99999752058713242686E+00
    0.99999900863635848847E+00
    0.99999930444268680940E+00
    0.99999945921922006598E+00
    0.99999902963571996040E+00
    0.99999716887776990415E+00
    0.99999896569817448011E+00
    0.99999821648476372449E+00
    0.99999891125314133156E+00
    0.99999916953617640214E+00
    0.99999842709156439025E+00
    0.99999902042940103097E+00
    0.99999806998242390943E+00
    0.99999804794865621016E+00
    0.99999957849299814239E+00
    0.10000000391660499588E+01
    0.99999953176455780302E+00
    0.99999958426785673371E+00
    0.99999919806750126039E+00
    0.99999726163244351262E+00
    0.99999912465876550360E+00
    0.99999841260219735073E+00
    0.99999892414652113981E+00
    0.99999756114442717170E+00
    0.99999928440268348595E+00
    0.99999941503986078395E+00
    0.99999881328048401130E+00
    0.99999832292840828973E+00
    0.99999760496712197799E+00
    0.99999916168735802913E+00
    0.99999941776068179689E+00
    0.99999974395781932035E+00
    0.10000001133762710381E+01
    0.99999957688607166162E+00
    0.99999951485073879098E+00
    0.99999918268169585289E+00
    0.99999738026886331177E+00
    0.99999902397261053455E+00
    0.99999852855962023668E+00
    0.99999915655872573250E+00
    0.99999829122727579289E+00
    0.99999882385367433457E+00
    0.99999969659084320117E+00
    0.10000000989828397024E+01
    0.99999955922882299841E+00
    0.99999977514011151314E+00
    0.10000001290021440781E+01
    0.99999957176261744518E+00
    0.99999973830454802481E+00
    0.10000000795473511506E+01
    0.99999948384168768634E+00
    0.99999981456332931451E+00
    0.10000001493518029250E+01
    0.99999965270144730578E+00
    0.99999934766758014071E+00
    0.99999936652220011712E+00
    0.99999962681739384962E+00
    0.10000000925462644297E+01
    0.99999954641470123473E+00
    0.99999959432242269131E+00
    0.99999923961725678545E+00
    0.99999727032265484095E+00
    0.99999913821481967169E+00
    0.99999846497496780451E+00
    0.99999896543341126876E+00
    0.99999762303440475897E+00
    0.99999936435873193474E+00
    0.99999949856951142468E+00
    0.99999903297474534991E+00
    0.99999853856730014368E+00
    0.99999962937526798434E+00
    0.10000000934571109390E+01
    0.99999954688211178944E+00
    0.99999959464534060594E+00
    0.99999924059813316557E+00
    0.99999727060598053718E+00
    0.99999913873272128217E+00
    0.99999846659249613801E+00
    0.99999896776543528709E+00
    0.99999762721222207329E+00
    0.99999936772323538836E+00
    0.99999950387054237222E+00
    0.99999903545416868322E+00
    0.99999854119572739730E+00
    0.99999972291251804091E+00
    0.10000001199159880283E+01
    0.99999957206027867418E+00
    0.99999978369576203452E+00
    0.10000001414676411571E+01
    0.99999957924981841551E+00
    0.99999975163929644140E+00
    0.10000001050842588501E+01
    0.99999951793174735037E+00
    0.99999978138418277318E+00
    0.10000001822083433023E+01
    0.99999969237522357002E+00
    0.99999937504285907330E+00
    0.99999939005925220226E+00
    0.99999972567923001154E+00
    0.10000001212246389937E+01
    0.99999957253994065098E+00
    0.99999978395810595888E+00
    0.10000001419097019895E+01
    0.99999957947961803928E+00
    0.99999975212355041165E+00
    0.10000001062695609289E+01
    0.99999952052755691767E+00
    0.99999978588430904480E+00
    0.10000001854514648514E+01
    0.99999969783832165504E+00
    0.99999937648141457025E+00
    0.99999939109343838339E+00
    0.99999761057885894200E+00
    0.99999917107133551308E+00
    0.99999942463153113081E+00
    0.99999975482329861443E+00
    0.10000001326518987987E+01
    0.99999961547186444477E+00
    0.99999951615948090566E+00
    0.99999921589337292804E+00
    0.99999743443743827065E+00
    0.99999905954904544370E+00
    0.99999854794289355642E+00
    0.99999916632723673260E+00
    0.99999830810428735894E+00
    0.99999884326386578870E+00
    0.99999970330182819112E+00
    0.10000001120719241854E+01
    0.99999956710753667988E+00
    0.99999978760944774336E+00
    0.10000001553660424758E+01
    0.99999960331259118984E+00
    0.99999970908772017886E+00
    0.10000001177641586469E+01
    0.99999955720679833959E+00
    0.99999986291499731728E+00
    0.10000001765955721655E+01
    0.99999966452088762114E+00
    0.99999938449227376847E+00
    0.99999940783788021648E+00
    0.99999761076256621362E+00
    0.99999917141054817105E+00
    0.99999942484155079914E+00
    0.99999975518298245269E+00
    0.10000001333128005765E+01
    0.99999961765873279784E+00
    0.99999952050294627082E+00
    0.99999921835565463990E+00
    0.99999743783799177610E+00
    0.99999906153721007662E+00
    0.99999854885023109485E+00
    0.99999916670458266488E+00
    0.99999830879660445149E+00
    0.99999884408395756097E+00
    0.99999970349438527251E+00
    0.10000001124605435443E+01
    0.99999956732948425131E+00
    0.99999978801818800722E+00
    0.10000001565112974777E+01
    0.99999960574009083558E+00
    0.99999971396479481189E+00
    0.10000001206125810338E+01
    0.99999956114596844081E+00
    0.99999986516687278115E+00
    0.10000001776306157719E+01
    0.99999966492611436220E+00
    0.99999938541658617286E+00
    0.99999940911704365831E+00
    0.99999972991606356221E+00
    0.10000001315085864650E+01
    0.99999957991843169136E+00
    0.99999979613950451540E+00
    0.10000001662873720942E+01
    0.99999961099402634446E+00
    0.99999972241699197628E+00
    0.10000001400635507576E+01
    0.99999957928837135412E+00
    0.99999982392170116974E+00
    0.10000002072705156397E+01
    0.99999970495140044768E+00
    0.99999939743449994811E+00
    0.99999941682611059868E+00
    0.99999973201352621022E+00
    0.10000001318055975474E+01
    0.99999957659777416463E+00
    0.99999979312252196273E+00
    0.10000001659819932609E+01
    0.99999961091371936117E+00
    0.99999972285993332655E+00
    0.10000001412549530677E+01
    0.99999958203595085138E+00
    0.99999982861672531698E+00
    0.10000002105347542969E+01
    0.99999971035847368128E+00
    0.99999939866227993690E+00
    0.99999941767588240715E+00
    0.99999972980178442050E+00
    0.10000001311310875440E+01
    0.99999957705698772070E+00
    0.99999979234542557549E+00
    0.10000001664125333090E+01
    0.99999961275036608477E+00
    0.99999972723745678138E+00
    0.10000001429283567056E+01
    0.99999958345454120767E+00
    0.99999982632904327318E+00
    0.10000002082955585792E+01
    0.99999970532195636697E+00
    0.99999939813943206079E+00
    0.99999941786024204582E+00
    0.99999970220179512648E+00
    0.10000000986791779400E+01
    0.99999908134886927868E+00
    0.99999932443009209582E+00
    0.10000001270676361909E+01
    0.99999956758355490472E+00
    0.99999972290852889856E+00
    0.10000001359734402850E+01
    0.99999958463779337059E+00
    0.99999982946047027976E+00
    0.10000002031875450115E+01
    0.99999970034401930441E+00
    0.99999937529863880403E+00
    0.99999939432096518477E+00
    0.99999962944199527470E+00
    0.10000000935218016362E+01
    0.99999954689456027612E+00
    0.99999959465484711263E+00
    0.99999924064505552046E+00
    0.99999727061477106105E+00
    0.99999913874700796512E+00
    0.99999846665390890177E+00
    0.99999896782568331588E+00
    0.99999762733096975165E+00
    0.99999936783668719187E+00
    0.99999950403244441954E+00
    0.99999903560959957360E+00
    0.99999854134177634801E+00
    0.99999962943792852776E+00
    0.10000000935190955786E+01
    0.99999954688430447991E+00
    0.99999959465150345395E+00
    0.99999924064419176695E+00
    0.99999727061448140386E+00
    0.99999913874714752016E+00
    0.99999846665409442004E+00
    0.99999896782655595118E+00
    0.99999762733375630042E+00
    0.99999936783744369784E+00
    0.99999950403489246131E+00
    0.99999903560895664345E+00
    0.99999854134146470841E+00
    0.99999972557886196434E+00
    0.10000001211047890859E+01
    0.99999957198361033583E+00
    0.99999978367828723513E+00
    0.10000001418551789367E+01
    0.99999957946526274455E+00
    0.99999975212967073812E+00
    0.10000001062885410796E+01
    0.99999952058666752297E+00
    0.99999978599407557400E+00
    0.10000001855179456722E+01
    0.99999969796164889235E+00
    0.99999937647948533570E+00
    0.99999939109179691865E+00
    0.99999972285165472652E+00
    0.10000001193067622474E+01
    0.99999956663827938019E+00
    0.99999978118030474761E+00
    0.10000001412794357059E+01
    0.99999957932040284270E+00
    0.99999975209753022565E+00
    0.10000001062302237287E+01
    0.99999952057341467970E+00
    0.99999978596641958539E+00
    0.10000001853310440669E+01
    0.99999969741695293735E+00
    0.99999937607896871583E+00
    0.99999939084577782467E+00
    0.99999962940913966758E+00
    0.10000000935069066621E+01
    0.99999954684817504713E+00
    0.99999959463990539810E+00
    0.99999924064166623161E+00
    0.99999727061378240744E+00
    0.99999913874699786209E+00
    0.99999846665390867972E+00
    0.99999896782653108218E+00
    0.99999762733353447786E+00
    0.99999936783605025692E+00
    0.99999950402942172634E+00
    0.99999903560660452495E+00
    0.99999854134009047435E+00
    0.99999962934876751586E+00
    0.10000000934873742864E+01
    0.99999954680765124060E+00
    0.99999959462886611750E+00
    0.99999924063840883726E+00
    0.99999727061229382041E+00
    0.99999913874600343533E+00
    0.99999846665297120740E+00
    0.99999896782606145784E+00
    0.99999762733255015412E+00
    0.99999936783280785058E+00
    0.99999950401610659956E+00
    0.99999903560251757195E+00
    0.99999854133812604573E+00
    0.99999971626312877948E+00
    0.10000001109704703683E+01
    0.99999954476799091108E+00
    0.99999977307830556494E+00
    0.10000001392875279560E+01
    0.99999957887883617058E+00
    0.99999975198402779597E+00
    0.10000001059651029145E+01
    0.99999952049354290384E+00
    0.99999978576760284454E+00
    0.10000001841556225290E+01
    0.99999969374964203794E+00
    0.99999937411322870062E+00
    0.99999938975224045290E+00
    0.99999969257061616101E+00
    0.10000000980118171068E+01
    0.99999952788929191705E+00
    0.99999977450470212137E+00
    0.10000001372260378663E+01
    0.99999957849807818988E+00
    0.99999975186183331921E+00
    0.10000001055647087522E+01
    0.99999952032772743138E+00
    0.99999978528313604453E+00
    0.10000001815503236635E+01
    0.99999968500653146908E+00
    0.99999937084843304458E+00
    0.99999938810601995964E+00
    0.99999971541578536183E+00
    0.10000001204835788915E+01
    0.99999947673912326085E+00
    0.99999976004101653881E+00
    0.10000001602703683101E+01
    0.99999960356029304887E+00
    0.99999972122542690744E+00
    0.10000001392762734032E+01
    0.99999958167911906504E+00
    0.99999982810750120965E+00
    0.10000002069504498881E+01
    0.99999970352417766328E+00
    0.99999938967079149421E+00
    0.99999941042002560287E+00
    0.99999909399389330655E+00
    0.99999974955918657926E+00
    0.99999796081817049487E+00
    0.99999905732864513563E+00
    0.10000000299086324596E+01
    0.99999954994636963690E+00
    0.99999971239498997022E+00
    0.10000001138214722474E+01
    0.99999957485914359179E+00
    0.99999981599688092526E+00
    0.10000001712916519736E+01
    0.99999959605759880521E+00
    0.99999927537145172352E+00
    0.99999932962389503910E+00
    0.99997915523712221919E+00
    0.99997507960376708080E+00
    0.99981351112081762178E+00
    0.99995123385774420388E+00
    0.99999337470140770012E+00
    0.99999785481121350461E+00
    0.99999937491820656277E+00
    0.99999985983093686581E+00
    0.99999951866558745017E+00
    0.99999971957328093186E+00
    0.99999964097047056022E+00
    0.99999762192896335389E+00
    0.99999627757085407520E+00
    0.99999773626426724515E+00
    0.99898453619178406715E+00
    0.99970396442878162180E+00
    0.99885818254061042865E+00
    0.99971817294960119149E+00
    0.99994326853179860137E+00
    0.99998266210668895759E+00
    0.99999530996974583807E+00
    0.99999396162429943224E+00
    0.99999794362880556342E+00
    0.99999670069595902877E+00
    0.99997741744847368217E+00
    0.99987928796637437490E+00
    0.99995298098760887484E+00
    0.99997507822491304985E+00
    0.99999423814199783767E+00
    0.99999703535053907633E+00
    0.99999101610638130300E+00
    0.99999615416123821543E+00
    0.99999924145447094403E+00
    0.99999934328107875636E+00
    0.99999965639602794720E+00
    0.10000000814470624277E+01
    0.99999954133486512742E+00
    0.99999973100155592487E+00
    0.99999990756380718882E+00
    0.99999845826477062882E+00
    0.99999863672802213888E+00
    0.99999895821080453384E+00
    0.99998227885819623850E+00
    0.99999212754847899287E+00
    0.99998239535437738468E+00
    0.99999325352286638768E+00
    0.99999836809752262745E+00
    0.99999915689635032745E+00
    0.99999958870035188241E+00
    0.99999990972516406007E+00
    0.99999946170808984292E+00
    0.99999949792082487576E+00
    0.99999886562834616743E+00
    0.99999503888250629302E+00
    0.99999731991712370593E+00
    0.99999824978589912927E+00
    0.99808259226754703075E+00
    0.99924185345061555807E+00
    0.99788682270570061572E+00
    0.99922504211140961150E+00
    0.99978257871955256153E+00
    0.99993078585150252380E+00
    0.99997830885935912182E+00
    0.99996319374911801781E+00
    0.99998711592368372258E+00
    0.99997677374177673659E+00
    0.99988998983835231105E+00
    0.99964578585466157268E+00
    0.99981262350136157480E+00
    0.99987913428894881207E+00
    0.99641005311674801792E+00
    0.99843228825172103402E+00
    0.99661367005919532236E+00
    0.99871717586616870488E+00
    0.99959841751445055458E+00
    0.99988348671849958116E+00
    0.99995772563271401179E+00
    0.99990971152376018072E+00
    0.99996091916963314450E+00
    0.99991936926735980329E+00
    0.99967014722166169793E+00
    0.99906769594848099381E+00
    0.99954663921226338807E+00
    0.99971638414595054289E+00
    0.99999761076518445257E+00
    0.99999917141575866975E+00
    0.99999942484399029219E+00
    0.99999975518558725796E+00
    0.10000001333106205426E+01
    0.99999961762291056377E+00
    0.99999952060449670554E+00
    0.99999921841562000591E+00
    0.99999743793371431710E+00
    0.99999906158493878650E+00
    0.99999854886860362058E+00
    0.99999916671040467442E+00
    0.99999830881091056334E+00
    0.99999884410346240315E+00
    0.99999970347874933552E+00
    0.10000001124029120891E+01
    0.99999956704750847525E+00
    0.99999978745893791654E+00
    0.10000001563855960285E+01
    0.99999960562806711195E+00
    0.99999971406384213779E+00
    0.10000001206635207307E+01
    0.99999956122388033997E+00
    0.99999986513683691847E+00
    0.10000001776232243511E+01
    0.99999966492622072156E+00
    0.99999938540789634622E+00
    0.99999940910832429974E+00
    0.99999761076502846624E+00
    0.99999917141493277484E+00
    0.99999942484032922074E+00
    0.99999975517581218831E+00
    0.10000001333077956911E+01
    0.99999961761814215588E+00
    0.99999952060478947136E+00
    0.99999921841586247861E+00
    0.99999743793485362797E+00
    0.99999906158536466805E+00
    0.99999854886871009096E+00
    0.99999916671060284923E+00
    0.99999830881077655942E+00
    0.99999884410302875004E+00
    0.99999970333395005184E+00
    0.10000001118284849166E+01
    0.99999956456650096470E+00
    0.99999978156369495608E+00
    0.10000001545901875399E+01
    0.99999960290448053346E+00
    0.99999971351766125949E+00
    0.10000001204761044260E+01
    0.99999956119523647491E+00
    0.99999986512319249954E+00
    0.10000001775650682045E+01
    0.99999966489401459491E+00
    0.99999938516149000645E+00
    0.99999940870760084533E+00
    0.99999972239271261998E+00
    0.10000001117285910457E+01
    0.99999950038482832149E+00
    0.99999970856644437855E+00
    0.10000001617640454921E+01
    0.99999958053640614075E+00
    0.99999972381573176694E+00
    0.10000001394419253398E+01
    0.99999958293199731063E+00
    0.99999982596220549080E+00
    0.10000002063201776092E+01
    0.99999970369072410659E+00
    0.99999939073625476738E+00
    0.99999940912221374489E+00
    0.99999801690904221996E+00
    0.99999337204651506106E+00
    0.99995093640265630963E+00
    0.99981369662308827717E+00
    0.99997506572395666868E+00
    0.99997899067062334666E+00
    0.99999760937594905919E+00
    0.99999956195829087235E+00
    0.99999949337749849398E+00
    0.99999974688983384041E+00
    0.99999993141337339964E+00
    0.99999937690551887748E+00
    0.99999771724810582185E+00
    0.99999627592167417145E+00
    0.99999967540931944399E+00
    0.10000000086508267216E+01
    0.99999877682641602483E+00
    0.99999816060973734100E+00
    0.99999975106516070245E+00
    0.99999894143683754066E+00
    0.99999960368216733730E+00
    0.10000001080903475614E+01
    0.99999957137763706427E+00
    0.99999981918425950855E+00
    0.10000001804192528709E+01
    0.99999968750582290955E+00
    0.99999930389617885940E+00
    0.99999928567158846704E+00
    0.99998284603108533730E+00
    0.99994327486210632383E+00
    0.99971785830439319209E+00
    0.99885835134443790029E+00
    0.99970394393833039715E+00
    0.99898438419668356136E+00
    0.99987923862887440052E+00
    0.99997731718322879768E+00
    0.99999655862209024804E+00
    0.99999821177595615840E+00
    0.99999403798934383136E+00
    0.99999532112585065580E+00
    0.99997505962565214066E+00
    0.99995296875704120509E+00
    0.99999761076431947782E+00
    0.99999917141270056042E+00
    0.99999942482892290041E+00
    0.99999975513906025348E+00
    0.10000001332956911515E+01
    0.99999961758938138434E+00
    0.99999952059939856142E+00
    0.99999921841427907854E+00
    0.99999743793464757058E+00
    0.99999906158529416889E+00
    0.99999854886830452649E+00
    0.99999916671029620563E+00
    0.99999830880955853374E+00
    0.99999884410059369788E+00
    0.99999970288990924772E+00
    0.10000001097771367142E+01
    0.99999955650765026682E+00
    0.99999977353603952679E+00
    0.10000001458113456643E+01
    0.99999958403143751617E+00
    0.99999970959948458749E+00
    0.10000001193072560746E+01
    0.99999956099663300790E+00
    0.99999986504348337135E+00
    0.10000001773004261185E+01
    0.99999966478057322750E+00
    0.99999938406210486797E+00
    0.99999940670640563578E+00
    0.99999761076411797234E+00
    0.99999917141005711940E+00
    0.99999942482421178003E+00
    0.99999975509974703414E+00
    0.10000001332763552853E+01
    0.99999961752960386807E+00
    0.99999952058646079944E+00
    0.99999921841110961385E+00
    0.99999743793400031056E+00
    0.99999906158501927766E+00
    0.99999854886734895754E+00
    0.99999916670957567089E+00
    0.99999830880704831948E+00
    0.99999884409624162362E+00
    0.99999970252765746359E+00
    0.10000001077587692411E+01
    0.99999954932743506664E+00
    0.99999975389768758216E+00
    0.10000001323323779445E+01
    0.99999955212252955583E+00
    0.99999970495631274048E+00
    0.10000001168276264618E+01
    0.99999956050943628050E+00
    0.99999986487806769020E+00
    0.10000001768999557950E+01
    0.99999966465927991877E+00
    0.99999938242719477177E+00
    0.99999940341221504880E+00
    0.99999947286951584857E+00
    0.99999922910599237103E+00
    0.99999586554122499304E+00
    0.99999120487199499863E+00
    0.99999703639063097782E+00
    0.99999409364011360157E+00
    0.99999843622711825919E+00
    0.99999982233452489044E+00
    0.99999951652949958802E+00
    0.99999979440972186495E+00
    0.10000001501436472928E+01
    0.99999964168795341113E+00
    0.99999893595353273046E+00
    0.99999863774357045099E+00
    0.99993097896224569787E+00
    0.99978258870142222570E+00
    0.99922472124737515831E+00
    0.99788698647589579860E+00
    0.99924183363573171324E+00
    0.99808244651113031676E+00
    0.99964572051973055178E+00
    0.99988988550456492366E+00
    0.99997666445983413031E+00
    0.99998740169697430957E+00
    0.99996327499465365030E+00
    0.99997832165768696377E+00