# vtk DataFile Version 3.0
LAPLACIEN  2D
ASCII
DATASET UNSTRUCTURED_GRID
 POINTS        1857  float
   3.1250000000000000E-002  0.93750000000000000        0.0000000000000000     
   6.2500000000000000E-002  0.93750000000000000        0.0000000000000000     
   6.2500000000000000E-002  0.96875000000000000        0.0000000000000000     
   1.8749999999999999E-002  0.95625000000000004        0.0000000000000000     
   4.0625000000000001E-002  0.95937499999999998        0.0000000000000000     
   4.3749999999999997E-002  0.98124999999999996        0.0000000000000000     
   2.1874999999999999E-002  0.97812500000000002        0.0000000000000000     
   9.3750000000000000E-002  0.93750000000000000        0.0000000000000000     
  0.12500000000000000       0.93750000000000000        0.0000000000000000     
  0.12500000000000000       0.96875000000000000        0.0000000000000000     
   8.1250000000000003E-002  0.95625000000000004        0.0000000000000000     
  0.10312499999999999       0.95937499999999998        0.0000000000000000     
  0.10625000000000000       0.98124999999999996        0.0000000000000000     
   8.4375000000000006E-002  0.97812500000000002        0.0000000000000000     
   3.1250000000000000E-002  0.87500000000000000        0.0000000000000000     
   6.2500000000000000E-002  0.87500000000000000        0.0000000000000000     
   6.2500000000000000E-002  0.90625000000000000        0.0000000000000000     
   1.8749999999999999E-002  0.89375000000000004        0.0000000000000000     
   4.0625000000000001E-002  0.89687499999999998        0.0000000000000000     
   4.3749999999999997E-002  0.91874999999999996        0.0000000000000000     
   2.1874999999999999E-002  0.91562500000000002        0.0000000000000000     
   9.3750000000000000E-002  0.87500000000000000        0.0000000000000000     
  0.12500000000000000       0.87500000000000000        0.0000000000000000     
  0.12500000000000000       0.90625000000000000        0.0000000000000000     
   8.1250000000000003E-002  0.89375000000000004        0.0000000000000000     
  0.10312499999999999       0.89687499999999998        0.0000000000000000     
  0.10625000000000000       0.91874999999999996        0.0000000000000000     
   8.4375000000000006E-002  0.91562500000000002        0.0000000000000000     
  0.15625000000000000       0.93750000000000000        0.0000000000000000     
  0.18750000000000000       0.93750000000000000        0.0000000000000000     
  0.18750000000000000       0.96875000000000000        0.0000000000000000     
  0.14374999999999999       0.95625000000000004        0.0000000000000000     
  0.16562499999999999       0.95937499999999998        0.0000000000000000     
  0.16875000000000001       0.98124999999999996        0.0000000000000000     
  0.14687500000000001       0.97812500000000002        0.0000000000000000     
  0.21875000000000000       0.93750000000000000        0.0000000000000000     
  0.25000000000000000       0.93750000000000000        0.0000000000000000     
  0.25000000000000000       0.96875000000000000        0.0000000000000000     
  0.20624999999999999       0.95625000000000004        0.0000000000000000     
  0.22812499999999999       0.95937499999999998        0.0000000000000000     
  0.23125000000000001       0.98124999999999996        0.0000000000000000     
  0.20937500000000001       0.97812500000000002        0.0000000000000000     
  0.15625000000000000       0.87500000000000000        0.0000000000000000     
  0.18750000000000000       0.87500000000000000        0.0000000000000000     
  0.18750000000000000       0.90625000000000000        0.0000000000000000     
  0.14374999999999999       0.89375000000000004        0.0000000000000000     
  0.16562499999999999       0.89687499999999998        0.0000000000000000     
  0.16875000000000001       0.91874999999999996        0.0000000000000000     
  0.14687500000000001       0.91562500000000002        0.0000000000000000     
  0.21875000000000000       0.87500000000000000        0.0000000000000000     
  0.25000000000000000       0.87500000000000000        0.0000000000000000     
  0.25000000000000000       0.90625000000000000        0.0000000000000000     
  0.20624999999999999       0.89375000000000004        0.0000000000000000     
  0.22812499999999999       0.89687499999999998        0.0000000000000000     
  0.23125000000000001       0.91874999999999996        0.0000000000000000     
  0.20937500000000001       0.91562500000000002        0.0000000000000000     
   3.1250000000000000E-002  0.81250000000000000        0.0000000000000000     
   6.2500000000000000E-002  0.81250000000000000        0.0000000000000000     
   6.2500000000000000E-002  0.84375000000000000        0.0000000000000000     
   1.8749999999999999E-002  0.83125000000000004        0.0000000000000000     
   4.0625000000000001E-002  0.83437499999999998        0.0000000000000000     
   4.3749999999999997E-002  0.85624999999999996        0.0000000000000000     
   2.1874999999999999E-002  0.85312500000000002        0.0000000000000000     
   9.3750000000000000E-002  0.81250000000000000        0.0000000000000000     
  0.12500000000000000       0.81250000000000000        0.0000000000000000     
  0.12500000000000000       0.84375000000000000        0.0000000000000000     
   8.1250000000000003E-002  0.83125000000000004        0.0000000000000000     
  0.10312499999999999       0.83437499999999998        0.0000000000000000     
  0.10625000000000000       0.85624999999999996        0.0000000000000000     
   8.4375000000000006E-002  0.85312500000000002        0.0000000000000000     
   3.1250000000000000E-002  0.75000000000000000        0.0000000000000000     
   6.2500000000000000E-002  0.75000000000000000        0.0000000000000000     
   6.2500000000000000E-002  0.78125000000000000        0.0000000000000000     
   1.8749999999999999E-002  0.76875000000000004        0.0000000000000000     
   4.0625000000000001E-002  0.77187499999999998        0.0000000000000000     
   4.3749999999999997E-002  0.79374999999999996        0.0000000000000000     
   2.1874999999999999E-002  0.79062500000000002        0.0000000000000000     
   9.3750000000000000E-002  0.75000000000000000        0.0000000000000000     
  0.12500000000000000       0.75000000000000000        0.0000000000000000     
  0.12500000000000000       0.78125000000000000        0.0000000000000000     
   8.1250000000000003E-002  0.76875000000000004        0.0000000000000000     
  0.10312499999999999       0.77187499999999998        0.0000000000000000     
  0.10625000000000000       0.79374999999999996        0.0000000000000000     
   8.4375000000000006E-002  0.79062500000000002        0.0000000000000000     
  0.15625000000000000       0.81250000000000000        0.0000000000000000     
  0.18750000000000000       0.81250000000000000        0.0000000000000000     
  0.18750000000000000       0.84375000000000000        0.0000000000000000     
  0.14374999999999999       0.83125000000000004        0.0000000000000000     
  0.16562499999999999       0.83437499999999998        0.0000000000000000     
  0.16875000000000001       0.85624999999999996        0.0000000000000000     
  0.14687500000000001       0.85312500000000002        0.0000000000000000     
  0.21875000000000000       0.81250000000000000        0.0000000000000000     
  0.25000000000000000       0.81250000000000000        0.0000000000000000     
  0.25000000000000000       0.84375000000000000        0.0000000000000000     
  0.20624999999999999       0.83125000000000004        0.0000000000000000     
  0.22812499999999999       0.83437499999999998        0.0000000000000000     
  0.23125000000000001       0.85624999999999996        0.0000000000000000     
  0.20937500000000001       0.85312500000000002        0.0000000000000000     
  0.15625000000000000       0.75000000000000000        0.0000000000000000     
  0.18750000000000000       0.75000000000000000        0.0000000000000000     
  0.18750000000000000       0.78125000000000000        0.0000000000000000     
  0.14374999999999999       0.76875000000000004        0.0000000000000000     
  0.16562499999999999       0.77187499999999998        0.0000000000000000     
  0.16875000000000001       0.79374999999999996        0.0000000000000000     
  0.14687500000000001       0.79062500000000002        0.0000000000000000     
  0.21875000000000000       0.75000000000000000        0.0000000000000000     
  0.25000000000000000       0.75000000000000000        0.0000000000000000     
  0.25000000000000000       0.78125000000000000        0.0000000000000000     
  0.20624999999999999       0.76875000000000004        0.0000000000000000     
  0.22812499999999999       0.77187499999999998        0.0000000000000000     
  0.23125000000000001       0.79374999999999996        0.0000000000000000     
  0.20937500000000001       0.79062500000000002        0.0000000000000000     
  0.28125000000000000       0.93750000000000000        0.0000000000000000     
  0.31250000000000000       0.93750000000000000        0.0000000000000000     
  0.31250000000000000       0.96875000000000000        0.0000000000000000     
  0.26874999999999999       0.95625000000000004        0.0000000000000000     
  0.29062500000000002       0.95937499999999998        0.0000000000000000     
  0.29375000000000001       0.98124999999999996        0.0000000000000000     
  0.27187499999999998       0.97812500000000002        0.0000000000000000     
  0.34375000000000000       0.93750000000000000        0.0000000000000000     
  0.37500000000000000       0.93750000000000000        0.0000000000000000     
  0.37500000000000000       0.96875000000000000        0.0000000000000000     
  0.33124999999999999       0.95625000000000004        0.0000000000000000     
  0.35312500000000002       0.95937499999999998        0.0000000000000000     
  0.35625000000000001       0.98124999999999996        0.0000000000000000     
[...]
 CELL_DATA        3584
 SCALARS Endothelial_cells float
 LOOKUP_TABLE default
    0.99999670067409252017E+00
    0.99999834302058809854E+00
    0.99999888992054730696E+00
    0.99999902747117164203E+00
    0.99999834668185161313E+00
    0.99999631965752477925E+00
    0.99999825349500004457E+00
    0.99999751923248969554E+00
    0.99999835716671414687E+00
    0.99999864269158755814E+00
    0.99999777039891069030E+00
    0.99999834938514065019E+00
    0.99999731529603619329E+00
    0.99999728391489561830E+00
    0.99999929647868490701E+00
    0.99999986547153563166E+00
    0.99999927704836566456E+00
    0.99999923046515026837E+00
    0.99999860564722264922E+00
    0.99999646134505315587E+00
    0.99999846495701261162E+00
    0.99999774861842971596E+00
    0.99999820160736718755E+00
    0.99999673749988193805E+00
    0.99999872211167484259E+00
    0.99999901009778746630E+00
    0.99999837838726435280E+00
    0.99999776051898003892E+00
    0.99999682425172831124E+00
    0.99999857544798809172E+00
    0.99999906276448069509E+00
    0.99999949426309597822E+00
    0.99999994702798000734E+00
    0.99999938034364488360E+00
    0.99999915095521496600E+00
    0.99999862500791203423E+00
    0.99999657275567421788E+00
    0.99999832262321464160E+00
    0.99999788631112307424E+00
    0.99999852387409537968E+00
    0.99999773025231952772E+00
    0.99999837404133851138E+00
    0.99999946224559832508E+00
    0.99999986370411375614E+00
    0.99999931961582511075E+00
    0.99999955193744916038E+00
    0.99999990094419721753E+00
    0.99999933257143325260E+00
    0.99999949890014216969E+00
    0.99999983735614705882E+00
    0.99999922688500353374E+00
    0.99999961936995629408E+00
    0.99999993571232070888E+00
    0.99999941492156363410E+00
    0.99999907379358854431E+00
    0.99999908981791174600E+00
    0.99999937171218611365E+00
    0.99999998610384410735E+00
    0.99999931167964284384E+00
    0.99999925753100427084E+00
    0.99999870540114099704E+00
    0.99999648624679515763E+00
    0.99999850027500281069E+00
    0.99999786571784088363E+00
    0.99999827803902674450E+00
    0.99999684177908365612E+00
    0.99999887944029131059E+00
    0.99999914788254873343E+00
    0.99999873934226535255E+00
    0.99999811289431128625E+00
    0.99999938561024526162E+00
    0.99999998979024018464E+00
    0.99999931325102997537E+00
    0.99999925861211003131E+00
    0.99999870734587203991E+00
    0.99999648723614065204E+00
    0.99999850197515205430E+00
    0.99999786937479318016E+00
    0.99999828440976579191E+00
    0.99999685343000144222E+00
    0.99999888753083554516E+00
    0.99999916197396987450E+00
    0.99999874388542897563E+00
    0.99999811668382299068E+00
    0.99999950521856872943E+00
    0.99999990132226324047E+00
    0.99999934355431308042E+00
    0.99999956496059594357E+00
    0.99999992437304185966E+00
    0.99999935582774968079E+00
    0.99999952602795172396E+00
    0.99999987603468432074E+00
    0.99999926207382727750E+00
    0.99999954181709160839E+00
    0.99999996851541006482E+00
    0.99999947727519367113E+00
    0.99999911496049020965E+00
    0.99999912819051062218E+00
    0.99999950204717036328E+00
    0.99999990012064843281E+00
    0.99999933830412446323E+00
    0.99999956067859807618E+00
    0.99999992449659980132E+00
    0.99999935652663751728E+00
    0.99999952759817689607E+00
    0.99999988316207788497E+00
    0.99999933788714123750E+00
    0.99999962209250936596E+00
    0.99999997753144731494E+00
    0.99999948101734326134E+00
    0.99999911799538221402E+00
    0.99999913077867674804E+00
    0.99999683622555701756E+00
    0.99999859360745046999E+00
    0.99999907718269143153E+00
    0.99999951571591216837E+00
    0.99999998285782809582E+00
    0.99999943523341561225E+00
    0.99999917129274884520E+00
    0.99999867421928767541E+00
    0.99999665492090783481E+00
    0.99999837999213037065E+00
    0.99999791995636244657E+00
    0.99999854288924061585E+00
    0.99999776036575238614E+00
    0.99999840930417283058E+00
    0.99999947721426174496E+00
    0.99999989042908643544E+00
    0.99999933625907133639E+00
    0.99999957188830779220E+00
    0.99999994516755175145E+00
    0.99999937979021702450E+00
    0.99999947248166809466E+00
    0.99999989534022570847E+00
    0.99999933773410187854E+00
    0.99999969112800835003E+00
    0.99999998322726324496E+00
    0.99999943828791426625E+00
    0.99999913333144385685E+00
    0.99999915444367548645E+00
    0.99999683697869290455E+00
    0.99999859483833830609E+00
    0.99999907801751120040E+00
    0.99999951705957801362E+00
    0.99999998578306004138E+00
    0.99999944107439731056E+00
    0.99999918121718278652E+00
    0.99999868048053219827E+00
    0.99999666292216848884E+00
    0.99999838520881367820E+00
    0.99999792269042075965E+00
    0.99999854423893308475E+00
    0.99999776276694851695E+00
    0.99999841242165510291E+00
    0.99999947740438011046E+00
    0.99999989037670322656E+00
    0.99999933194658718882E+00
    0.99999956595740679965E+00
    0.99999994637986944213E+00
    0.99999938431039581133E+00
    0.99999948358371792967E+00
    0.99999990247856995751E+00
    0.99999934731181383540E+00
    0.99999969713367187207E+00
    0.99999998623365604633E+00
    0.99999943960985804292E+00
    0.99999913568216014514E+00
    0.99999915757113033710E+00
    0.99999950969191453432E+00
    0.99999991750328021123E+00
    0.99999934724257022456E+00
    0.99999957941080219737E+00
    0.99999996088934084426E+00
    0.99999939314443042626E+00
    0.99999949649963049136E+00
    0.99999992667109127709E+00
    0.99999935814344775853E+00
    0.99999960734982196175E+00
    0.10000000086682143685E+01
    0.99999949338936555687E+00
    0.99999915229789093640E+00
    0.99999917074418986918E+00
    0.99999944564767084820E+00
    0.99999988496274072602E+00
    0.99999899519148494065E+00
    0.99999933161615217614E+00
    0.99999993748172610886E+00
    0.99999934290265546366E+00
    0.99999948985775133359E+00
    0.99999991399493737276E+00
    0.99999935658571792452E+00
    0.99999961307359641616E+00
    0.99999999632853542320E+00
    0.99999948307807629000E+00
    0.99999911630936333395E+00
    0.99999913677373986065E+00
    0.99999947738492345195E+00
    0.99999990272140659719E+00
    0.99999904099542502589E+00
    0.99999922602931679005E+00
    0.99999991341428151603E+00
    0.99999930094121780577E+00
    0.99999949212485761407E+00
    0.99999991436106272502E+00
    0.99999935890793312243E+00
    0.99999960930697628925E+00
    0.99999999574106690492E+00
    0.99999947888163565057E+00
    0.99999911593939805332E+00
    0.99999913105003479519E+00
    0.99999600791098530728E+00
    0.99999434645241869202E+00
    0.99998081965923635295E+00
    0.99998108050149603354E+00
    0.99999433649654623224E+00
    0.99999581985731000877E+00
    0.99999859348599851039E+00
    0.99999937278662487383E+00
    0.99999919551952232144E+00
    0.99999941581719720141E+00
    0.99999946732976585650E+00
    0.99999862931878835681E+00
    0.99999723581070532052E+00
    0.99999723963374897995E+00
    0.99999938604516991347E+00
    0.99999998977712389880E+00
    0.99999931258772334353E+00
    0.99999925827245772503E+00
    0.99999870733911366827E+00
    0.99999648724202816474E+00
    0.99999850203743090304E+00
    0.99999786954396796546E+00
    0.99999828472646923316E+00
    0.99999685398340443232E+00
    0.99999888792940072602E+00
    0.99999916262060584149E+00
    0.99999874407782973762E+00
    0.99999811684668848955E+00
    0.99999938421981837688E+00
    0.99999998826753877523E+00
    0.99999930835093120418E+00
    0.99999925633447817042E+00
    0.99999870679731428513E+00
    0.99999648707685706572E+00
    0.99999850197547979214E+00
    0.99999786946219548778E+00
    0.99999828470307661199E+00
    0.99999685395335957683E+00
    0.99999888770396971882E+00
    0.99999916210678607698E+00
    0.99999874365436602908E+00
    0.99999811656686277139E+00
    0.99999948375948000123E+00
    0.99999986668394802436E+00
    0.99999925599200278903E+00
    0.99999953472146219102E+00
    0.99999990694648710488E+00
    0.99999935030355702192E+00
    0.99999952590429130872E+00
    0.99999988105483406109E+00
    0.99999933871982393807E+00
    0.99999962280148191329E+00
    0.99999997326668343955E+00
    0.99999947242838704842E+00
    0.99999910777209422008E+00
    0.99999912289060599591E+00
    0.99999920749296089539E+00
    0.99999978757597618451E+00
    0.99999875060784815251E+00
    0.99999932128353874461E+00
    0.99999989025389968145E+00
    0.99999931107185413559E+00
    0.99999951535490805288E+00
    0.99999986449623612383E+00
    0.99999931131241948101E+00
    0.99999959093017365408E+00
    0.99999993170467094128E+00
    0.99999940567429435045E+00
    0.99999904779340820227E+00
    0.99999907948222122034E+00
    0.99999936610205086840E+00
    0.99999998303515114095E+00
    0.99999929021495648218E+00
    0.99999925174797166250E+00
    0.99999870548734282050E+00
    0.99999648671695295921E+00
    0.99999850181901439594E+00
    0.99999786920674194057E+00
    0.99999828458413375643E+00
    0.99999685374922897552E+00
    0.99999888679687065629E+00
    0.99999915930321348068E+00
    0.99999874230625529492E+00
    0.99999811573377461738E+00
    0.99999934992648475962E+00
    0.99999996683595993030E+00
    0.99999926913035586118E+00
    0.99999924784111682285E+00
    0.99999870445166305633E+00
    0.99999648646982952638E+00
    0.99999850168011494844E+00
    0.99999786895073672355E+00
    0.99999828439603077879E+00
    0.99999685338809762847E+00
    0.99999888571672057580E+00
    0.99999915438143949231E+00
    0.99999873134644090555E+00
    0.99999811583067843568E+00
    0.99999782028969141923E+00
    0.99999908711311968901E+00
    0.99999703175454779380E+00
    0.99999856895817729185E+00
    0.99999967441147041836E+00
    0.99999924301034581742E+00
    0.99999948449356401703E+00
    0.99999984659910623463E+00
    0.99999924026324160664E+00
    0.99999950181910235436E+00
    0.99999989267377753510E+00
    0.99999907467883897283E+00
    0.99999885703507551682E+00
    0.99999895782957637369E+00
    0.99999524739801315398E+00
    0.99999799999102279013E+00
    0.99999530928693591836E+00
    0.99999791449862240889E+00
    0.99999945915262100637E+00
    0.99999919193348740798E+00
    0.99999945042347349045E+00
    0.99999983022228511320E+00
    0.99999920516736684473E+00
    0.99999942490337456746E+00
    0.99999965517704458851E+00
    0.99999824414135329853E+00
    0.99999854474981997310E+00
    0.99999880028784104979E+00
    0.99999686997204906280E+00
    0.99999728267146303917E+00
    0.99999165318710803163E+00
    0.99999424346794485441E+00
    0.99999834398329512375E+00
    0.99999861099316833535E+00
    0.99999928425102879714E+00
    0.99999980215377104464E+00
    0.99999929884968696836E+00
    0.99999951739981429721E+00
    0.99999983992968310975E+00
    0.99999890151975967534E+00
    0.99999839021943637274E+00
    0.99999854403047649942E+00
    0.99996983413781093120E+00
    0.99997539744718633159E+00
    0.99993968007059264025E+00
    0.99996277358047125361E+00
    0.99998764471753087690E+00
    0.99999435397156932748E+00
    0.99999791399144555282E+00
    0.99999786179936900332E+00
    0.99999864127944004810E+00
    0.99999846668560932184E+00
    0.99999581854282526550E+00
    0.99999082345787793091E+00
    0.99999096658242259128E+00
    0.99999285429782236445E+00
    0.99979992072216716803E+00
    0.99976307067053038491E+00
    0.99899499774819922049E+00
    0.99953071900226242441E+00
    0.99987847235134930113E+00
    0.99994497309523255879E+00
    0.99998314020672574021E+00
    0.99998284359106959229E+00
    0.99999435479017151351E+00
    0.99999360421840555180E+00
    0.99997612168106897457E+00
    0.99995844776259246167E+00
    0.99993812864973896648E+00
    0.99995063235211900654E+00
    0.99575884440394668573E+00
    0.99788863633621938121E+00
    0.99438400445420560558E+00
    0.99747727500291683000E+00
    0.99919669732873317436E+00
    0.99965125433944401756E+00
    0.99987819308542658092E+00
    0.99984270838447775187E+00
    0.99994379753275841605E+00
    0.99991972214749857972E+00
    0.99967275574492397983E+00
    0.99914512005143840678E+00
    0.99940768635577448276E+00
    0.99957081975827311027E+00
    0.99984559594928112958E+00
    0.99989512541151703839E+00
    0.99978302743140012865E+00
    0.99988072903360569743E+00
    0.99995796717272378284E+00
    0.99998399091207013090E+00
    0.99999401559774125925E+00
    0.99999079415679792415E+00
    0.99999568846596731397E+00
    0.99999319787514906466E+00
    0.99997667311289839542E+00
    0.99994888311298113504E+00
    0.99996280547230487201E+00
    0.99997296873254215566E+00
    0.99961521137324149677E+00
    0.99978279374347434061E+00
    0.99962291528396107765E+00
    0.99981346686523775436E+00
    0.99993095298738943200E+00
    0.99997644702558252661E+00
    0.99999025964533216904E+00
    0.99998144073841421786E+00
    0.99999044855437557722E+00
    0.99998233175666706440E+00
    0.99994055104314005789E+00
    0.99985913724063957275E+00
    0.99992213590514600341E+00
    0.99994718404939464396E+00
    0.98939729577541823957E+00
    0.99376183093633552179E+00
    0.98719116843911436376E+00
    0.99311492782214905173E+00
    0.99740243203541045780E+00
    0.99891482119906638282E+00
    0.99956861331814972349E+00
    0.99934058867349140343E+00
    0.99971672219429608131E+00
    0.99956072551114594216E+00
    0.99852599627659210935E+00
    0.99680962404030948321E+00
    0.99776209609068577944E+00
    0.99832539062649794381E+00
    0.97902560934394133874E+00
    0.98797119322776738581E+00
    0.97965680797246601497E+00
    0.98943371531713752987E+00
    0.99569097856131882907E+00
    0.99835263366010029706E+00
    0.99925722831286389880E+00
    0.99864656536238427531E+00
    0.99929549820261309723E+00
    0.99878457316365687468E+00
    0.99632083279103034190E+00
    0.99204705261756243040E+00
    0.99530833336458957028E+00
    0.99664535360294859156E+00
    0.99999683696966912283E+00
    0.99999859478148889202E+00
    0.99999907765509410407E+00
    0.99999951636579820224E+00
    0.99999998565452119514E+00
    0.99999944100078053122E+00
    0.99999918168607937474E+00
    0.99999868077680253986E+00
    0.99999666337353010359E+00
    0.99999838547226094221E+00
    0.99999792280069943473E+00
    0.99999854427889312003E+00
    0.99999776282796537519E+00
    0.99999841250109799962E+00
    0.99999947060556915179E+00
    0.99999987262434719693E+00
    0.99999927577185676597E+00
    0.99999951309851342618E+00
    0.99999993165219946967E+00
    0.99999934720009597822E+00
    0.99999947644112485712E+00
    0.99999989797171717765E+00
    0.99999934674936419299E+00
    0.99999969669120247762E+00
    0.99999998386218813540E+00
    0.99999943780459854548E+00
    0.99999912779839084109E+00
    0.99999914765125830218E+00
    0.99999683680366890925E+00
    0.99999859423563153271E+00
    0.99999907568375856481E+00
    0.99999951171252909887E+00
    0.99999998403845924422E+00
    0.99999943848701089433E+00
    0.99999918107996310646E+00
    0.99999868054573470832E+00
    0.99999666333732140089E+00
    0.99999838544698405052E+00
    0.99999792271814225142E+00
    0.99999854421690992368E+00
    0.99999776254723593549E+00
    0.99999841207288797662E+00
    0.99999943935054469435E+00
    0.99999986071634816565E+00
    0.99999902315850774936E+00
    0.99999896846094071812E+00
    0.99999980019317236124E+00
    0.99999905026905300254E+00
    0.99999939874705401355E+00
    0.99999985747496999977E+00
    0.99999933716370315029E+00
    0.99999969115700226840E+00
    0.99999996671352198163E+00
    0.99999942667501484639E+00
    0.99999907425066658639E+00
    0.99999907529152409769E+00
    0.99999877539159609530E+00
    0.99999833187866837836E+00
    0.99999391745959831379E+00
    0.99999184461405288271E+00
    0.99999726845419600885E+00
    0.99999670931793915862E+00
    0.99999886055835296439E+00
    0.99999973917246387511E+00
    0.99999929049681690607E+00
    0.99999953870592783733E+00
    0.99999988815425033817E+00
    0.99999930115142643405E+00
    0.99999852350161522185E+00
    0.99999838213003866549E+00
    0.99994519595864284067E+00
    0.99987848052417771516E+00
    0.99953036536525574629E+00
    0.99899516858864634283E+00
    0.99976302011009332560E+00
    0.99979971798727740318E+00
    0.99995837155409506014E+00
    0.99997599808385762010E+00
    0.99999348929929510188E+00
    0.99999463906720453821E+00
    0.99998294140962917798E+00
    0.99998317670719794048E+00
    0.99995061315674438340E+00
    0.99993810161551910376E+00
    0.99999454270321430638E+00
    0.99998764127226913434E+00
    0.99996243154463471114E+00
    0.99993985727884027170E+00
    0.99997538168433464101E+00
    0.99996968608582370575E+00
    0.99999074536447152273E+00
    0.99999569683210953741E+00
    0.99999832471755523144E+00
    0.99999892072568830059E+00
    0.99999795402884883444E+00
    0.99999794397415087133E+00
    0.99999283402787542130E+00
    0.99999094830389834154E+00
    0.99965149377716600032E+00
    0.99919670955154726855E+00
    0.99747691085460288285E+00
    0.99438416235490556527E+00
    0.99788860456863459625E+00
    0.99575869466204214309E+00
    0.99914501057176796639E+00
    0.99967262974623005700E+00
    0.99991965141490901647E+00
    0.99994411189714438315E+00
    0.99984281562029941881E+00
    0.99987822897053890703E+00
    0.99957080133860243265E+00
    0.99940765889096061514E+00
    0.99999683644361769819E+00
    0.99999859290639170339E+00
    0.99999907085663031214E+00
    0.99999949832309098507E+00
    0.99999997838583742915E+00
    0.99999940947490950638E+00
    0.99999917800479964924E+00
    0.99999867962335919902E+00
    0.99999666313138302343E+00
    0.99999838532769191879E+00
    0.99999792246196250733E+00
    0.99999854405992627537E+00
    0.99999776170729937075E+00
    0.99999841069528883075E+00
    0.99999936552186485805E+00
    0.99999965606814356089E+00
    0.99999826401763858286E+00
    0.99999723578820876035E+00
    0.99999909889933902285E+00
    0.99999767505290648728E+00
    0.99999903977569715163E+00
    0.99999981007903282482E+00
    0.99999929714845303685E+00
    0.99999965197448159593E+00
    0.99999995060634705446E+00
    0.99999939469873511122E+00
    0.99999894593396465581E+00
    0.99999887262588804671E+00
    0.99999683619750334707E+00
    0.99999859180621153421E+00
    0.99999906723366738248E+00
    0.99999948692164697395E+00
    0.99999996953157765933E+00
    0.99999936036954373275E+00
    0.99999917090592393976E+00
    0.99999867799436625848E+00
    0.99999666275664378379E+00
    0.99999838513929151240E+00
    0.99999792215577232302E+00
    0.99999854392165832273E+00
    0.99999776071315960024E+00
    0.99999840881466894871E+00
    0.99999930772553435876E+00
    0.99999944653934313976E+00
    0.99999763555017895378E+00
    0.99999551060729496843E+00
    0.99999801173590197045E+00
    0.99999510631788468551E+00
    0.99999819739669026930E+00
    0.99999956085099150904E+00
    0.99999923277195901239E+00
    0.99999960356989237020E+00
    0.99999993331473358005E+00
    0.99999936870742289763E+00
    0.99999878810098385973E+00
    0.99999855383605817938E+00
    0.99998418936500621523E+00
    0.99995796732962360931E+00
    0.99988038126364697789E+00
    0.99978319961336459265E+00
    0.99989510777044876555E+00
    0.99984545223591203555E+00
    0.99994878875448012234E+00
    0.99997654736884589166E+00
    0.99999308991601576491E+00
    0.99999598623009711140E+00
    0.99999089227353699094E+00
    0.99999404737125086040E+00
    0.99997294873222064560E+00
    0.99996278361134505186E+00
    0.99891506705341825967E+00
    0.99740244645773568077E+00
    0.99311456174798640184E+00
    0.98719132102205897628E+00
    0.99376179950271581465E+00
    0.98939715118315618714E+00
    0.99680950567185955258E+00
    0.99852587169870832273E+00
    0.99956067437488305139E+00
    0.99971704974488362350E+00
    0.99934070114840500842E+00
    0.99956864914840870551E+00