# vtk DataFile Version 3.0
LAPLACIEN  2D
ASCII
DATASET UNSTRUCTURED_GRID
 POINTS        1857  float
   3.1250000000000000E-002  0.93750000000000000        0.0000000000000000     
   6.2500000000000000E-002  0.93750000000000000        0.0000000000000000     
   6.2500000000000000E-002  0.96875000000000000        0.0000000000000000     
   1.8749999999999999E-002  0.95625000000000004        0.0000000000000000     
   4.0625000000000001E-002  0.95937499999999998        0.0000000000000000     
   4.3749999999999997E-002  0.98124999999999996        0.0000000000000000     
   2.1874999999999999E-002  0.97812500000000002        0.0000000000000000     
   9.3750000000000000E-002  0.93750000000000000        0.0000000000000000     
  0.12500000000000000       0.93750000000000000        0.0000000000000000     
  0.12500000000000000       0.96875000000000000        0.0000000000000000     
   8.1250000000000003E-002  0.95625000000000004        0.0000000000000000     
  0.10312499999999999       0.95937499999999998        0.0000000000000000     
  0.10625000000000000       0.98124999999999996        0.0000000000000000     
   8.4375000000000006E-002  0.97812500000000002        0.0000000000000000     
   3.1250000000000000E-002  0.87500000000000000        0.0000000000000000     
   6.2500000000000000E-002  0.87500000000000000        0.0000000000000000     
   6.2500000000000000E-002  0.90625000000000000        0.0000000000000000     
   1.8749999999999999E-002  0.89375000000000004        0.0000000000000000     
   4.0625000000000001E-002  0.89687499999999998        0.0000000000000000     
   4.3749999999999997E-002  0.91874999999999996        0.0000000000000000     
   2.1874999999999999E-002  0.91562500000000002        0.0000000000000000     
   9.3750000000000000E-002  0.87500000000000000        0.0000000000000000     
  0.12500000000000000       0.87500000000000000        0.0000000000000000     
  0.12500000000000000       0.90625000000000000        0.0000000000000000     
   8.1250000000000003E-002  0.89375000000000004        0.0000000000000000     
  0.10312499999999999       0.89687499999999998        0.0000000000000000     
  0.10625000000000000       0.91874999999999996        0.0000000000000000     
   8.4375000000000006E-002  0.91562500000000002        0.0000000000000000     
  0.15625000000000000       0.93750000000000000        0.0000000000000000     
  0.18750000000000000       0.93750000000000000        0.0000000000000000     
  0.18750000000000000       0.96875000000000000        0.0000000000000000     
  0.14374999999999999       0.95625000000000004        0.0000000000000000     
  0.16562499999999999       0.95937499999999998        0.0000000000000000     
  0.16875000000000001       0.98124999999999996        0.0000000000000000     
  0.14687500000000001       0.97812500000000002        0.0000000000000000     
  0.21875000000000000       0.93750000000000000        0.0000000000000000     
  0.25000000000000000       0.93750000000000000        0.0000000000000000     
  0.25000000000000000       0.96875000000000000        0.0000000000000000     
  0.20624999999999999       0.95625000000000004        0.0000000000000000     
  0.22812499999999999       0.95937499999999998        0.0000000000000000     
  0.23125000000000001       0.98124999999999996        0.0000000000000000     
  0.20937500000000001       0.97812500000000002        0.0000000000000000     
  0.15625000000000000       0.87500000000000000        0.0000000000000000     
  0.18750000000000000       0.87500000000000000        0.0000000000000000     
  0.18750000000000000       0.90625000000000000        0.0000000000000000     
  0.14374999999999999       0.89375000000000004        0.0000000000000000     
  0.16562499999999999       0.89687499999999998        0.0000000000000000     
  0.16875000000000001       0.91874999999999996        0.0000000000000000     
  0.14687500000000001       0.91562500000000002        0.0000000000000000     
  0.21875000000000000       0.87500000000000000        0.0000000000000000     
  0.25000000000000000       0.87500000000000000        0.0000000000000000     
  0.25000000000000000       0.90625000000000000        0.0000000000000000     
  0.20624999999999999       0.89375000000000004        0.0000000000000000     
  0.22812499999999999       0.89687499999999998        0.0000000000000000     
  0.23125000000000001       0.91874999999999996        0.0000000000000000     
  0.20937500000000001       0.91562500000000002        0.0000000000000000     
   3.1250000000000000E-002  0.81250000000000000        0.0000000000000000     
   6.2500000000000000E-002  0.81250000000000000        0.0000000000000000     
   6.2500000000000000E-002  0.84375000000000000        0.0000000000000000     
   1.8749999999999999E-002  0.83125000000000004        0.0000000000000000     
   4.0625000000000001E-002  0.83437499999999998        0.0000000000000000     
   4.3749999999999997E-002  0.85624999999999996        0.0000000000000000     
   2.1874999999999999E-002  0.85312500000000002        0.0000000000000000     
   9.3750000000000000E-002  0.81250000000000000        0.0000000000000000     
  0.12500000000000000       0.81250000000000000        0.0000000000000000     
  0.12500000000000000       0.84375000000000000        0.0000000000000000     
   8.1250000000000003E-002  0.83125000000000004        0.0000000000000000     
  0.10312499999999999       0.83437499999999998        0.0000000000000000     
  0.10625000000000000       0.85624999999999996        0.0000000000000000     
   8.4375000000000006E-002  0.85312500000000002        0.0000000000000000     
   3.1250000000000000E-002  0.75000000000000000        0.0000000000000000     
   6.2500000000000000E-002  0.75000000000000000        0.0000000000000000     
   6.2500000000000000E-002  0.78125000000000000        0.0000000000000000     
   1.8749999999999999E-002  0.76875000000000004        0.0000000000000000     
   4.0625000000000001E-002  0.77187499999999998        0.0000000000000000     
   4.3749999999999997E-002  0.79374999999999996        0.0000000000000000     
   2.1874999999999999E-002  0.79062500000000002        0.0000000000000000     
   9.3750000000000000E-002  0.75000000000000000        0.0000000000000000     
  0.12500000000000000       0.75000000000000000        0.0000000000000000     
  0.12500000000000000       0.78125000000000000        0.0000000000000000     
   8.1250000000000003E-002  0.76875000000000004        0.0000000000000000     
  0.10312499999999999       0.77187499999999998        0.0000000000000000     
  0.10625000000000000       0.79374999999999996        0.0000000000000000     
   8.4375000000000006E-002  0.79062500000000002        0.0000000000000000     
  0.15625000000000000       0.81250000000000000        0.0000000000000000     
  0.18750000000000000       0.81250000000000000        0.0000000000000000     
  0.18750000000000000       0.84375000000000000        0.0000000000000000     
  0.14374999999999999       0.83125000000000004        0.0000000000000000     
  0.16562499999999999       0.83437499999999998        0.0000000000000000     
  0.16875000000000001       0.85624999999999996        0.0000000000000000     
  0.14687500000000001       0.85312500000000002        0.0000000000000000     
  0.21875000000000000       0.81250000000000000        0.0000000000000000     
  0.25000000000000000       0.81250000000000000        0.0000000000000000     
  0.25000000000000000       0.84375000000000000        0.0000000000000000     
  0.20624999999999999       0.83125000000000004        0.0000000000000000     
  0.22812499999999999       0.83437499999999998        0.0000000000000000     
  0.23125000000000001       0.85624999999999996        0.0000000000000000     
  0.20937500000000001       0.85312500000000002        0.0000000000000000     
  0.15625000000000000       0.75000000000000000        0.0000000000000000     
  0.18750000000000000       0.75000000000000000        0.0000000000000000     
  0.18750000000000000       0.78125000000000000        0.0000000000000000     
  0.14374999999999999       0.76875000000000004        0.0000000000000000     
  0.16562499999999999       0.77187499999999998        0.0000000000000000     
  0.16875000000000001       0.79374999999999996        0.0000000000000000     
  0.14687500000000001       0.79062500000000002        0.0000000000000000     
  0.21875000000000000       0.75000000000000000        0.0000000000000000     
  0.25000000000000000       0.75000000000000000        0.0000000000000000     
  0.25000000000000000       0.78125000000000000        0.0000000000000000     
  0.20624999999999999       0.76875000000000004        0.0000000000000000     
  0.22812499999999999       0.77187499999999998        0.0000000000000000     
  0.23125000000000001       0.79374999999999996        0.0000000000000000     
  0.20937500000000001       0.79062500000000002        0.0000000000000000     
  0.28125000000000000       0.93750000000000000        0.0000000000000000     
  0.31250000000000000       0.93750000000000000        0.0000000000000000     
  0.31250000000000000       0.96875000000000000        0.0000000000000000     
  0.26874999999999999       0.95625000000000004        0.0000000000000000     
  0.29062500000000002       0.95937499999999998        0.0000000000000000     
  0.29375000000000001       0.98124999999999996        0.0000000000000000     
  0.27187499999999998       0.97812500000000002        0.0000000000000000     
  0.34375000000000000       0.93750000000000000        0.0000000000000000     
  0.37500000000000000       0.93750000000000000        0.0000000000000000     
  0.37500000000000000       0.96875000000000000        0.0000000000000000     
  0.33124999999999999       0.95625000000000004        0.0000000000000000     
  0.35312500000000002       0.95937499999999998        0.0000000000000000     
  0.35625000000000001       0.98124999999999996        0.0000000000000000     
[...]
 CELL_DATA        3584
 SCALARS Endothelial_cells float
 LOOKUP_TABLE default
    0.99999658140336777912E+00
    0.99999824168284423553E+00
    0.99999882155093422487E+00
    0.99999895671162097877E+00
    0.99999824272881787657E+00
    0.99999621865972165846E+00
    0.99999814266526543260E+00
    0.99999741328101598992E+00
    0.99999827030375365577E+00
    0.99999855861641351318E+00
    0.99999766931352340738E+00
    0.99999824434451400901E+00
    0.99999720297326122331E+00
    0.99999717036356072786E+00
    0.99999925066991568468E+00
    0.99999982508933527026E+00
    0.99999923366598386654E+00
    0.99999917302258245488E+00
    0.99999851676247020205E+00
    0.99999634575880957943E+00
    0.99999836136094699679E+00
    0.99999764700073379142E+00
    0.99999808987962235385E+00
    0.99999663650416859006E+00
    0.99999863553901402469E+00
    0.99999894426412894166E+00
    0.99999830524721777802E+00
    0.99999767551547091848E+00
    0.99999671095269904164E+00
    0.99999848747831443507E+00
    0.99999900556331011714E+00
    0.99999945173345272664E+00
    0.99999990871923927216E+00
    0.99999934347021179892E+00
    0.99999909055780400458E+00
    0.99999853986910036685E+00
    0.99999645510820667216E+00
    0.99999821394867660640E+00
    0.99999778751474821537E+00
    0.99999842397456439880E+00
    0.99999764545162461715E+00
    0.99999830058723626625E+00
    0.99999942408176190067E+00
    0.99999982431324019316E+00
    0.99999928034899165930E+00
    0.99999951484394178358E+00
    0.99999986221867609437E+00
    0.99999929278686483514E+00
    0.99999945855286387353E+00
    0.99999979687188722544E+00
    0.99999918543324450848E+00
    0.99999958433421398674E+00
    0.99999989882025108745E+00
    0.99999937524031856650E+00
    0.99999903026569691988E+00
    0.99999904587127186328E+00
    0.99999932996061080548E+00
    0.99999995534817454068E+00
    0.99999927183518733109E+00
    0.99999920321028301640E+00
    0.99999862513228965355E+00
    0.99999637366730909083E+00
    0.99999840074455015326E+00
    0.99999777381020271694E+00
    0.99999817236286181465E+00
    0.99999672852731891215E+00
    0.99999880444911959376E+00
    0.99999909119372920596E+00
    0.99999868340765296626E+00
    0.99999804459518693012E+00
    0.99999934843034077314E+00
    0.99999995981953415658E+00
    0.99999927360068374682E+00
    0.99999920441296752394E+00
    0.99999862725923616136E+00
    0.99999637479705749676E+00
    0.99999840267606299182E+00
    0.99999777785695631582E+00
    0.99999817951175706821E+00
    0.99999674165371976731E+00
    0.99999881347135788356E+00
    0.99999910727035978830E+00
    0.99999868838713246166E+00
    0.99999804868970931793E+00
    0.99999946942721762433E+00
    0.99999986432741860831E+00
    0.99999930559578920075E+00
    0.99999952801611935449E+00
    0.99999988744237544580E+00
    0.99999932123993684474E+00
    0.99999948831704554841E+00
    0.99999983727093499919E+00
    0.99999922081661762885E+00
    0.99999950224529854381E+00
    0.99999993165590828070E+00
    0.99999944132562590404E+00
    0.99999907325033809968E+00
    0.99999908621479516313E+00
    0.99999946326393085450E+00
    0.99999986074239177736E+00
    0.99999929475221005504E+00
    0.99999951910301665414E+00
    0.99999988635756242861E+00
    0.99999932147160519591E+00
    0.99999949010707156472E+00
    0.99999984674848940713E+00
    0.99999930769149714127E+00
    0.99999959386928638505E+00
    0.99999994267265068792E+00
    0.99999944407600549479E+00
    0.99999907609088434235E+00
    0.99999908878699150794E+00
    0.99999672398228578452E+00
    0.99999850705411685858E+00
    0.99999902121944839184E+00
    0.99999947487336360297E+00
    0.99999994688083959637E+00
    0.99999940120621988449E+00
    0.99999911559196319466E+00
    0.99999859189370943202E+00
    0.99999654150943662057E+00
    0.99999827461225887504E+00
    0.99999782337361398099E+00
    0.99999844447120123103E+00
    0.99999767761685176559E+00
    0.99999833813436234120E+00
    0.99999944038441967997E+00
    0.99999985305506611244E+00
    0.99999929806457998893E+00
    0.99999953532536112188E+00
    0.99999990879905720220E+00
    0.99999934234159371105E+00
    0.99999943358972964713E+00
    0.99999985785390521631E+00
    0.99999930151940685796E+00
    0.99999965957908376613E+00
    0.99999994928812740991E+00
    0.99999940042801016560E+00
    0.99999909293276834088E+00
    0.99999911367903149273E+00
    0.99999672485581858616E+00
    0.99999850846276583383E+00
    0.99999902215353964063E+00
    0.99999947636224362224E+00
    0.99999995019769394311E+00
    0.99999940768453621232E+00
    0.99999912645692201618E+00
    0.99999859882610353523E+00
    0.99999655030361378483E+00
    0.99999828040961180609E+00
    0.99999782645843970919E+00
    0.99999844601981435765E+00
    0.99999768035020197843E+00
    0.99999834166530787716E+00
    0.99999944004767149508E+00
    0.99999985175510874846E+00
    0.99999928948632010872E+00
    0.99999952369099165406E+00
    0.99999990821488482506E+00
    0.99999934558813308172E+00
    0.99999944529366635582E+00
    0.99999986550269637231E+00
    0.99999931201572833661E+00
    0.99999966621810432166E+00
    0.99999995251020923348E+00
    0.99999940179662805129E+00
    0.99999909508032391869E+00
    0.99999911658533202630E+00
    0.99999947097369079607E+00
    0.99999987767545994721E+00
    0.99999929918866892198E+00
    0.99999954260279200202E+00
    0.99999992197903997404E+00
    0.99999935443859178097E+00
    0.99999945859279504301E+00
    0.99999988985698584631E+00
    0.99999932171108996126E+00
    0.99999957092890312538E+00
    0.99999997328333356528E+00
    0.99999945693969038985E+00
    0.99999911141076247567E+00
    0.99999912974795401865E+00
    0.99999933414205821602E+00
    0.99999976809298651848E+00
    0.99999866429719519445E+00
    0.99999905143921197226E+00
    0.99999983567797057216E+00
    0.99999926340354994281E+00
    0.99999944316451117032E+00
    0.99999986447779920518E+00
    0.99999931604324288070E+00
    0.99999957311383935732E+00
    0.99999994514125190026E+00
    0.99999943715246408793E+00
    0.99999904349322199515E+00
    0.99999906614892353218E+00
    0.99999940396779352092E+00
    0.99999980763175788656E+00
    0.99999875083898559502E+00
    0.99999888728602037702E+00
    0.99999978723058480234E+00
    0.99999918316731351009E+00
    0.99999943510923783307E+00
    0.99999986191197287599E+00
    0.99999931807997688438E+00
    0.99999956961960934088E+00
    0.99999994729957919493E+00
    0.99999943032742200089E+00
    0.99999904388289850843E+00
    0.99999905484640327913E+00
    0.99999388025870783459E+00
    0.99999111940544227473E+00
    0.99997160955858144238E+00
    0.99997187293612610492E+00
    0.99999110518961265015E+00
    0.99999368241324770867E+00
    0.99999794175011624819E+00
    0.99999884475865752353E+00
    0.99999901825507808706E+00
    0.99999923334458773461E+00
    0.99999894770002029087E+00
    0.99999798650125959476E+00
    0.99999593153741328511E+00
    0.99999593342193981993E+00
    0.99999934864020156855E+00
    0.99999995958904408511E+00
    0.99999927220383644233E+00
    0.99999920367213979144E+00
    0.99999862714664689012E+00
    0.99999637476862779373E+00
    0.99999840273839790683E+00
    0.99999777804008227466E+00
    0.99999817988524997148E+00
    0.99999674229713442219E+00
    0.99999881390829381544E+00
    0.99999910796328028706E+00
    0.99999868853909446020E+00
    0.99999804882227183445E+00
    0.99999934351411845501E+00
    0.99999995656690165990E+00
    0.99999926403278560638E+00
    0.99999919976766271645E+00
    0.99999862603324018995E+00
    0.99999637441587918563E+00
    0.99999840259949168697E+00
    0.99999777785870413993E+00
    0.99999817982335725830E+00
    0.99999674221201628743E+00
    0.99999881342802088291E+00
    0.99999910687636983653E+00
    0.99999868766630339856E+00
    0.99999804823384264019E+00
    0.99999942735683822193E+00
    0.99999984644213157914E+00
    0.99999917956161732402E+00
    0.99999947830437696528E+00
    0.99999987174738447226E+00
    0.99999930837823525209E+00
    0.99999948670118998795E+00
    0.99999984233423644397E+00
    0.99999930779742451925E+00
    0.99999959354868050987E+00
    0.99999993409450815829E+00
    0.99999942804238517446E+00
    0.99999905863905313996E+00
    0.99999907418930333858E+00
    0.99999893515012638900E+00
    0.99999960896465256432E+00
    0.99999825508253548101E+00
    0.99999904356351754231E+00
    0.99999979003854133630E+00
    0.99999924200177436884E+00
    0.99999946772069003842E+00
    0.99999981142497906816E+00
    0.99999926046111309308E+00
    0.99999953842101507728E+00
    0.99999988197530387257E+00
    0.99999932087815013304E+00
    0.99999894971338032512E+00
    0.99999899520959478760E+00
    0.99999931369848105156E+00
    0.99999994445576878555E+00
    0.99999922289653464524E+00
    0.99999919039910512009E+00
    0.99999862344099021971E+00
    0.99999637368138771798E+00
    0.99999840226365421803E+00
    0.99999777732814099096E+00
    0.99999817956475245406E+00
    0.99999674178165898208E+00
    0.99999881163328097067E+00
    0.99999910116699775031E+00
    0.99999868367090294363E+00
    0.99999804670881342616E+00
    0.99999929314330371355E+00
    0.99999986910910387827E+00
    0.99999919503554945965E+00
    0.99999918305624480031E+00
    0.99999862172850983999E+00
    0.99999637318996204005E+00
    0.99999840198145839576E+00
    0.99999777714385962302E+00
    0.99999817917975275527E+00
    0.99999674113537229125E+00
    0.99999881007763780083E+00
    0.99999909207860715465E+00
    0.99999862151516061282E+00
    0.99999804785603918500E+00
    0.99999663530558802194E+00
    0.99999835033888795355E+00
    0.99999548082165035101E+00
    0.99999776988447730552E+00
    0.99999939004889326633E+00
    0.99999911980386468890E+00
    0.99999940384903862611E+00
    0.99999979682809969628E+00
    0.99999917654525738442E+00
    0.99999942352521975497E+00
    0.99999977214662372216E+00
    0.99999870246760447223E+00
    0.99999862830583896578E+00
    0.99999879536800628799E+00
    0.99999258914244848473E+00
    0.99999657960583843153E+00
    0.99999278473404551448E+00
    0.99999672672165251797E+00
    0.99999902485508374017E+00
    0.99999902793970518733E+00
    0.99999935310670695632E+00
    0.99999972479098142575E+00
    0.99999912244955946328E+00
    0.99999928841290042225E+00
    0.99999931607256442589E+00
    0.99999731489241583393E+00
    0.99999808217674790445E+00
    0.99999848996316431649E+00
    0.99999520703103883523E+00
    0.99999556062791361555E+00
    0.99998729549112752579E+00
    0.99999102573204035060E+00
    0.99999721211632230933E+00
    0.99999803609310600194E+00
    0.99999908399847070584E+00
    0.99999960417745570318E+00
    0.99999921327249108316E+00
    0.99999940917338259183E+00
    0.99999956641783194211E+00
    0.99999841093546293358E+00
    0.99999777489128527375E+00
    0.99999801557299428101E+00
    0.99995520170715890274E+00
    0.99996295396033452185E+00
    0.99991222897138221093E+00
    0.99994470624446918361E+00
    0.99998097633351390456E+00
    0.99999139116034219121E+00
    0.99999686205329219035E+00
    0.99999643429983831044E+00
    0.99999810030585489784E+00
    0.99999768345402351155E+00
    0.99999313948565404786E+00
    0.99998597452669424346E+00
    0.99998629561542751176E+00
    0.99998911928113187741E+00
    0.99973440099052024443E+00
    0.99968655590598076710E+00
    0.99875561574180760083E+00
    0.99938230752454271233E+00
    0.99983046869948311031E+00
    0.99992022879178288353E+00
    0.99997477943042356596E+00
    0.99997407523282355601E+00
    0.99999146472075406411E+00
    0.99999025187788759261E+00
    0.99996450064582487194E+00
    0.99994093698265518189E+00
    0.99991255039218307488E+00
    0.99992871633312541135E+00
    0.99493078429925074779E+00
    0.99733150379608892511E+00
    0.99317804095483375182E+00
    0.99676228353210394317E+00
    0.99892583259212852642E+00
    0.99951852717418365746E+00
    0.99982680134840429265E+00
    0.99977798493739544750E+00
    0.99991835585164567934E+00
    0.99988528162085832385E+00
    0.99955555996980738342E+00
    0.99890984074931687964E+00
    0.99920839124394167374E+00
    0.99941362623243634733E+00
    0.99978091264974400243E+00
    0.99984900414148136782E+00
    0.99969540270500367729E+00
    0.99982860349361091234E+00
    0.99993772949122727844E+00
    0.99997582163528009325E+00
    0.99999080803315465449E+00
    0.99998561764565951915E+00
    0.99999343584627142789E+00
    0.99998954202818912673E+00
    0.99996464682039198912E+00
    0.99992510775184073601E+00
    0.99994501612156916348E+00
    0.99995959444470039479E+00
    0.99946785971092089174E+00
    0.99969370069883445318E+00
    0.99947872675338422788E+00
    0.99973539924036780580E+00
    0.99989912804558689352E+00
    0.99996468064190457969E+00
    0.99998509841397809073E+00
    0.99997168224383381485E+00
    0.99998541899060022775E+00
    0.99997329847077354170E+00
    0.99991262284521464920E+00
    0.99979901940095305957E+00
    0.99988700984204237354E+00
    0.99992228605129573893E+00
    0.98709622065944091496E+00
    0.99215652426331557567E+00
    0.98436315521448725097E+00
    0.99131347328639962679E+00
    0.99662440424521137050E+00
    0.99854913647016474432E+00
    0.99940787447881318517E+00
    0.99910642504749358483E+00
    0.99960593903044159259E+00
    0.99939847388015567997E+00
    0.99805412943332960651E+00
    0.99592480906828451115E+00
    0.99708267894671787079E+00
    0.99778943227672878269E+00
    0.97467179053038166536E+00
    0.98510599352773753346E+00
    0.97538827546998296825E+00
    0.98682540517632910682E+00
    0.99447741230888286879E+00
    0.99782448219556518776E+00
    0.99899569155901968287E+00
    0.99820301192237026466E+00
    0.99904434256975960249E+00
    0.99838187859957894243E+00
    0.99526208355946621520E+00
    0.99002149537516692668E+00
    0.99400503519903671279E+00
    0.99565802943607606412E+00
    0.99999672481069767915E+00
    0.99999850829876324454E+00
    0.99999902137778795552E+00
    0.99999947492052332354E+00
    0.99999994983352724631E+00
    0.99999940734044234780E+00
    0.99999912694430770355E+00
    0.99999859914998467936E+00
    0.99999655083069871608E+00
    0.99999828072143481794E+00
    0.99999782657942448694E+00
    0.99999844605726417868E+00
    0.99999768038154501770E+00
    0.99999834170228296681E+00
    0.99999942715481904276E+00
    0.99999981922409098001E+00
    0.99999919031414619131E+00
    0.99999942556814269690E+00
    0.99999989923330290242E+00
    0.99999928451854691591E+00
    0.99999943556026860136E+00
    0.99999985693632542638E+00
    0.99999931051112611602E+00
    0.99999966513810456537E+00
    0.99999994780726642052E+00
    0.99999939821470762435E+00
    0.99999908024295458553E+00
    0.99999909958339161520E+00
    0.99999672445696052847E+00
    0.99999850717814164902E+00
    0.99999901734642504536E+00
    0.99999946511521675685E+00
    0.99999994656744284338E+00
    0.99999940241258011842E+00
    0.99999912569821736152E+00
    0.99999859865756213217E+00
    0.99999655073846394071E+00
    0.99999828065727325299E+00
    0.99999782639712542220E+00
    0.99999844591813480399E+00
    0.99999767979093046044E+00
    0.99999834081602401170E+00
    0.99999937995759635712E+00
    0.99999976667340817471E+00
    0.99999873660231131112E+00
    0.99999846657235413883E+00
    0.99999961824106275987E+00
    0.99999878026397936992E+00
    0.99999930580358264987E+00
    0.99999980929462195522E+00
    0.99999929319518965354E+00
    0.99999965456160433419E+00
    0.99999991574379554216E+00
    0.99999937603384647655E+00
    0.99999898777878903910E+00
    0.99999897337543386389E+00
    0.99999821061393334709E+00
    0.99999720261302726954E+00
    0.99999069146072472325E+00
    0.99998748285498662014E+00
    0.99999554022294778743E+00
    0.99999504424271468128E+00
    0.99999835752326804439E+00
    0.99999945644724352878E+00
    0.99999920598845593034E+00
    0.99999946246939797057E+00
    0.99999969269096966595E+00
    0.99999910947138270778E+00
    0.99999799539750966471E+00
    0.99999776241089155526E+00
    0.99992045958893294166E+00
    0.99983047783336775893E+00
    0.99938194749921882565E+00
    0.99875578486175109472E+00
    0.99968650070217812686E+00
    0.99973419319335776745E+00
    0.99994085446134917117E+00
    0.99996437406226024169E+00
    0.99999014800179131246E+00
    0.99999175551762442549E+00
    0.99997417679536715340E+00
    0.99997481826914513814E+00
    0.99992869666642536508E+00
    0.99991252047638512490E+00
    0.99999158963534229283E+00
    0.99998097453652423638E+00
    0.99994435692864258591E+00
    0.99991240380526003051E+00
    0.99996293578340467167E+00
    0.99995505374692983391E+00
    0.99998588723335379846E+00
    0.99999301352927705278E+00
    0.99999755494970632430E+00
    0.99999838627142068059E+00
    0.99999653051128034598E+00
    0.99999689618612475073E+00
    0.99998909895332299680E+00
    0.99998627458315536565E+00
    0.99951877353520701686E+00
    0.99892584546739859874E+00
    0.99676191392989055284E+00
    0.99317819735113987978E+00
    0.99733147059312454719E+00
    0.99493063477388410387E+00
    0.99890972475245021212E+00
    0.99955543199604768301E+00
    0.99988521881647818290E+00
    0.99991867584919147394E+00
    0.99977809601689360264E+00
    0.99982683943776529123E+00
    0.99941360786959121398E+00
    0.99920836233425769368E+00
    0.99999672371618864020E+00
    0.99999850453273331219E+00
    0.99999900805290631300E+00
    0.99999944189374512238E+00
    0.99999993465734648979E+00
    0.99999934048500471739E+00
    0.99999911868474100629E+00
    0.99999859676014979382E+00
    0.99999655030417355928E+00
    0.99999828039800575663E+00
    0.99999782585899854581E+00
    0.99999844558180106535E+00
    0.99999767808960748905E+00
    0.99999833803308035840E+00
    0.99999925098193420681E+00
    0.99999937467744393071E+00
    0.99999745594328526277E+00
    0.99999568051944720537E+00
    0.99999835865269182111E+00
    0.99999649076926755420E+00
    0.99999865493630257784E+00
    0.99999968072910372374E+00
    0.99999922859045764501E+00
    0.99999957667398609029E+00
    0.99999990551323414412E+00
    0.99999932267937496899E+00
    0.99999878518928064786E+00
    0.99999863799652177754E+00
    0.99999672322031007976E+00
    0.99999850265638945412E+00
    0.99999900015143705634E+00
    0.99999942943837816234E+00
    0.99999988267317585500E+00
    0.99999928232368451297E+00
    0.99999910621440912806E+00
    0.99999859529981249828E+00
    0.99999654960484685162E+00
    0.99999828000392643190E+00
    0.99999782549833760026E+00
    0.99999844529370363055E+00
    0.99999768000795974388E+00
    0.99999829962721820120E+00
    0.99999914055074334840E+00
    0.99999901504468291513E+00
    0.99999643658616399478E+00
    0.99999298187906904278E+00
    0.99999658761375820326E+00
    0.99999244833346045969E+00
    0.99999725662991811870E+00
    0.99999921385784207306E+00
    0.99999912195964191231E+00
    0.99999952024592753119E+00
    0.99999983150225679740E+00
    0.99999928754499101125E+00
    0.99999847901419502971E+00
    0.99999808608925033759E+00
    0.99997602948987951432E+00
    0.99993773093768445470E+00
    0.99982824883815013539E+00
    0.99969557294900956990E+00
    0.99984898414822132029E+00
    0.99978076878940447259E+00
    0.99992500557238117587E+00
    0.99996451816807985225E+00
    0.99998944464885186623E+00
    0.99999373995773088719E+00
    0.99998571985628548209E+00
    0.99999084307251850934E+00
    0.99995957439990690307E+00
    0.99994499205451192747E+00
    0.99854938877089471916E+00
    0.99662441926970424255E+00
    0.99131310236782355094E+00
    0.98436330514150438553E+00
    0.99215649131171235187E+00
    0.98709607611878746880E+00
    0.99592468498178077230E+00
    0.99805400328616589167E+00
    0.99939842946464407802E+00
    0.99960627148712744017E+00
    0.99910654128543208152E+00
    0.99940791253194150023E+00