# vtk DataFile Version 3.0
LAPLACIEN  2D
ASCII
DATASET UNSTRUCTURED_GRID
 POINTS        1857  float
   3.1250000000000000E-002  0.93750000000000000        0.0000000000000000     
   6.2500000000000000E-002  0.93750000000000000        0.0000000000000000     
   6.2500000000000000E-002  0.96875000000000000        0.0000000000000000     
   1.8749999999999999E-002  0.95625000000000004        0.0000000000000000     
   4.0625000000000001E-002  0.95937499999999998        0.0000000000000000     
   4.3749999999999997E-002  0.98124999999999996        0.0000000000000000     
   2.1874999999999999E-002  0.97812500000000002        0.0000000000000000     
   9.3750000000000000E-002  0.93750000000000000        0.0000000000000000     
  0.12500000000000000       0.93750000000000000        0.0000000000000000     
  0.12500000000000000       0.96875000000000000        0.0000000000000000     
   8.1250000000000003E-002  0.95625000000000004        0.0000000000000000     
  0.10312499999999999       0.95937499999999998        0.0000000000000000     
  0.10625000000000000       0.98124999999999996        0.0000000000000000     
   8.4375000000000006E-002  0.97812500000000002        0.0000000000000000     
   3.1250000000000000E-002  0.87500000000000000        0.0000000000000000     
   6.2500000000000000E-002  0.87500000000000000        0.0000000000000000     
   6.2500000000000000E-002  0.90625000000000000        0.0000000000000000     
   1.8749999999999999E-002  0.89375000000000004        0.0000000000000000     
   4.0625000000000001E-002  0.89687499999999998        0.0000000000000000     
   4.3749999999999997E-002  0.91874999999999996        0.0000000000000000     
   2.1874999999999999E-002  0.91562500000000002        0.0000000000000000     
   9.3750000000000000E-002  0.87500000000000000        0.0000000000000000     
  0.12500000000000000       0.87500000000000000        0.0000000000000000     
  0.12500000000000000       0.90625000000000000        0.0000000000000000     
   8.1250000000000003E-002  0.89375000000000004        0.0000000000000000     
  0.10312499999999999       0.89687499999999998        0.0000000000000000     
  0.10625000000000000       0.91874999999999996        0.0000000000000000     
   8.4375000000000006E-002  0.91562500000000002        0.0000000000000000     
  0.15625000000000000       0.93750000000000000        0.0000000000000000     
  0.18750000000000000       0.93750000000000000        0.0000000000000000     
  0.18750000000000000       0.96875000000000000        0.0000000000000000     
  0.14374999999999999       0.95625000000000004        0.0000000000000000     
  0.16562499999999999       0.95937499999999998        0.0000000000000000     
  0.16875000000000001       0.98124999999999996        0.0000000000000000     
  0.14687500000000001       0.97812500000000002        0.0000000000000000     
  0.21875000000000000       0.93750000000000000        0.0000000000000000     
  0.25000000000000000       0.93750000000000000        0.0000000000000000     
  0.25000000000000000       0.96875000000000000        0.0000000000000000     
  0.20624999999999999       0.95625000000000004        0.0000000000000000     
  0.22812499999999999       0.95937499999999998        0.0000000000000000     
  0.23125000000000001       0.98124999999999996        0.0000000000000000     
  0.20937500000000001       0.97812500000000002        0.0000000000000000     
  0.15625000000000000       0.87500000000000000        0.0000000000000000     
  0.18750000000000000       0.87500000000000000        0.0000000000000000     
  0.18750000000000000       0.90625000000000000        0.0000000000000000     
  0.14374999999999999       0.89375000000000004        0.0000000000000000     
  0.16562499999999999       0.89687499999999998        0.0000000000000000     
  0.16875000000000001       0.91874999999999996        0.0000000000000000     
  0.14687500000000001       0.91562500000000002        0.0000000000000000     
  0.21875000000000000       0.87500000000000000        0.0000000000000000     
  0.25000000000000000       0.87500000000000000        0.0000000000000000     
  0.25000000000000000       0.90625000000000000        0.0000000000000000     
  0.20624999999999999       0.89375000000000004        0.0000000000000000     
  0.22812499999999999       0.89687499999999998        0.0000000000000000     
  0.23125000000000001       0.91874999999999996        0.0000000000000000     
  0.20937500000000001       0.91562500000000002        0.0000000000000000     
   3.1250000000000000E-002  0.81250000000000000        0.0000000000000000     
   6.2500000000000000E-002  0.81250000000000000        0.0000000000000000     
   6.2500000000000000E-002  0.84375000000000000        0.0000000000000000     
   1.8749999999999999E-002  0.83125000000000004        0.0000000000000000     
   4.0625000000000001E-002  0.83437499999999998        0.0000000000000000     
   4.3749999999999997E-002  0.85624999999999996        0.0000000000000000     
   2.1874999999999999E-002  0.85312500000000002        0.0000000000000000     
   9.3750000000000000E-002  0.81250000000000000        0.0000000000000000     
  0.12500000000000000       0.81250000000000000        0.0000000000000000     
  0.12500000000000000       0.84375000000000000        0.0000000000000000     
   8.1250000000000003E-002  0.83125000000000004        0.0000000000000000     
  0.10312499999999999       0.83437499999999998        0.0000000000000000     
  0.10625000000000000       0.85624999999999996        0.0000000000000000     
   8.4375000000000006E-002  0.85312500000000002        0.0000000000000000     
   3.1250000000000000E-002  0.75000000000000000        0.0000000000000000     
   6.2500000000000000E-002  0.75000000000000000        0.0000000000000000     
   6.2500000000000000E-002  0.78125000000000000        0.0000000000000000     
   1.8749999999999999E-002  0.76875000000000004        0.0000000000000000     
   4.0625000000000001E-002  0.77187499999999998        0.0000000000000000     
   4.3749999999999997E-002  0.79374999999999996        0.0000000000000000     
   2.1874999999999999E-002  0.79062500000000002        0.0000000000000000     
   9.3750000000000000E-002  0.75000000000000000        0.0000000000000000     
  0.12500000000000000       0.75000000000000000        0.0000000000000000     
  0.12500000000000000       0.78125000000000000        0.0000000000000000     
   8.1250000000000003E-002  0.76875000000000004        0.0000000000000000     
  0.10312499999999999       0.77187499999999998        0.0000000000000000     
  0.10625000000000000       0.79374999999999996        0.0000000000000000     
   8.4375000000000006E-002  0.79062500000000002        0.0000000000000000     
  0.15625000000000000       0.81250000000000000        0.0000000000000000     
  0.18750000000000000       0.81250000000000000        0.0000000000000000     
  0.18750000000000000       0.84375000000000000        0.0000000000000000     
  0.14374999999999999       0.83125000000000004        0.0000000000000000     
  0.16562499999999999       0.83437499999999998        0.0000000000000000     
  0.16875000000000001       0.85624999999999996        0.0000000000000000     
  0.14687500000000001       0.85312500000000002        0.0000000000000000     
  0.21875000000000000       0.81250000000000000        0.0000000000000000     
  0.25000000000000000       0.81250000000000000        0.0000000000000000     
  0.25000000000000000       0.84375000000000000        0.0000000000000000     
  0.20624999999999999       0.83125000000000004        0.0000000000000000     
  0.22812499999999999       0.83437499999999998        0.0000000000000000     
  0.23125000000000001       0.85624999999999996        0.0000000000000000     
  0.20937500000000001       0.85312500000000002        0.0000000000000000     
  0.15625000000000000       0.75000000000000000        0.0000000000000000     
  0.18750000000000000       0.75000000000000000        0.0000000000000000     
  0.18750000000000000       0.78125000000000000        0.0000000000000000     
  0.14374999999999999       0.76875000000000004        0.0000000000000000     
  0.16562499999999999       0.77187499999999998        0.0000000000000000     
  0.16875000000000001       0.79374999999999996        0.0000000000000000     
  0.14687500000000001       0.79062500000000002        0.0000000000000000     
  0.21875000000000000       0.75000000000000000        0.0000000000000000     
  0.25000000000000000       0.75000000000000000        0.0000000000000000     
  0.25000000000000000       0.78125000000000000        0.0000000000000000     
  0.20624999999999999       0.76875000000000004        0.0000000000000000     
  0.22812499999999999       0.77187499999999998        0.0000000000000000     
  0.23125000000000001       0.79374999999999996        0.0000000000000000     
  0.20937500000000001       0.79062500000000002        0.0000000000000000     
  0.28125000000000000       0.93750000000000000        0.0000000000000000     
  0.31250000000000000       0.93750000000000000        0.0000000000000000     
  0.31250000000000000       0.96875000000000000        0.0000000000000000     
  0.26874999999999999       0.95625000000000004        0.0000000000000000     
  0.29062500000000002       0.95937499999999998        0.0000000000000000     
  0.29375000000000001       0.98124999999999996        0.0000000000000000     
  0.27187499999999998       0.97812500000000002        0.0000000000000000     
  0.34375000000000000       0.93750000000000000        0.0000000000000000     
  0.37500000000000000       0.93750000000000000        0.0000000000000000     
  0.37500000000000000       0.96875000000000000        0.0000000000000000     
  0.33124999999999999       0.95625000000000004        0.0000000000000000     
  0.35312500000000002       0.95937499999999998        0.0000000000000000     
  0.35625000000000001       0.98124999999999996        0.0000000000000000     
[...]
 CELL_DATA        3584
 SCALARS Endothelial_cells float
 LOOKUP_TABLE default
    0.99999804745244191828E+00
    0.99999938456295855982E+00
    0.99999950870115406065E+00
    0.99999967321474225734E+00
    0.99999941407535664073E+00
    0.99999771975481221986E+00
    0.99999935229155245686E+00
    0.99999863104384445478E+00
    0.99999922144656605560E+00
    0.99999945038751780757E+00
    0.99999880769000826231E+00
    0.99999938185396741730E+00
    0.99999852947371947742E+00
    0.99999851395562000533E+00
    0.99999973576110756657E+00
    0.10000000409917573219E+01
    0.99999966041788856952E+00
    0.99999976010135871451E+00
    0.99999953828350773843E+00
    0.99999778520890136857E+00
    0.99999947467577432469E+00
    0.99999880045656908134E+00
    0.99999932011209213822E+00
    0.99999808583513094540E+00
    0.99999960751706007400E+00
    0.99999962051969004673E+00
    0.99999900624681592465E+00
    0.99999869588699641376E+00
    0.99999810811751788098E+00
    0.99999950037432527861E+00
    0.99999960028112844235E+00
    0.99999986541803254081E+00
    0.10000000957054786532E+01
    0.99999965211710040158E+00
    0.99999969246803099843E+00
    0.99999950812371207753E+00
    0.99999790059828119748E+00
    0.99999940529640041209E+00
    0.99999890062042218197E+00
    0.99999948976199359851E+00
    0.99999865408720844950E+00
    0.99999902454224709469E+00
    0.99999981499715528965E+00
    0.10000001998148748683E+01
    0.99999967964622860084E+00
    0.99999988161641040207E+00
    0.10000002230320534924E+01
    0.99999968894403301611E+00
    0.99999984825317733694E+00
    0.10000001852731279506E+01
    0.99999962227381444801E+00
    0.99999988739653422609E+00
    0.10000002361127249273E+01
    0.99999976824357561522E+00
    0.99999949676288291123E+00
    0.99999951665132014167E+00
    0.99999976749844166068E+00
    0.10000000634179031511E+01
    0.99999966729503897422E+00
    0.99999976405676427316E+00
    0.99999955056160616529E+00
    0.99999778842861142270E+00
    0.99999948061670296262E+00
    0.99999881988263383814E+00
    0.99999934531803025273E+00
    0.99999812647090791096E+00
    0.99999964694168785861E+00
    0.99999967660433541905E+00
    0.99999911043530376187E+00
    0.99999879582560891045E+00
    0.99999976848557403653E+00
    0.10000000642005242302E+01
    0.99999966744122859019E+00
    0.99999976413735303105E+00
    0.99999955105475568651E+00
    0.99999778849731346675E+00
    0.99999948075780520362E+00
    0.99999882061000278100E+00
    0.99999934619473485053E+00
    0.99999812814769029057E+00
    0.99999964846398214924E+00
    0.99999967880056672698E+00
    0.99999911355643089639E+00
    0.99999879880080111416E+00
    0.99999983220643184900E+00
    0.10000002117059632045E+01
    0.99999968627438018398E+00
    0.99999988566841702120E+00
    0.10000002294700289784E+01
    0.99999969247843079057E+00
    0.99999985516765044213E+00
    0.10000002011608994934E+01
    0.99999965186823802643E+00
    0.99999989647345743915E+00
    0.10000002657135003137E+01
    0.99999979636669256156E+00
    0.99999951415822729839E+00
    0.99999953048432654867E+00
    0.99999983323724850326E+00
    0.10000002121328750437E+01
    0.99999968640871472747E+00
    0.99999988573355358401E+00
    0.10000002295880519032E+01
    0.99999969253069875830E+00
    0.99999985529891843861E+00
    0.10000002015469842132E+01
    0.99999965284852110337E+00
    0.99999989838847525014E+00
    0.10000002669858487625E+01
    0.99999979872872291065E+00
    0.99999951463981640032E+00
    0.99999953080564696339E+00
    0.99999811078964451205E+00
    0.99999950535417458930E+00
    0.99999960358273476402E+00
    0.99999987136906309804E+00
    0.10000001034323586779E+01
    0.99999968325006249881E+00
    0.99999969452055326169E+00
    0.99999953354719606224E+00
    0.99999793789480706518E+00
    0.99999942824710374989E+00
    0.99999891219592795810E+00
    0.99999949490737649604E+00
    0.99999866514604018874E+00
    0.99999903249529209504E+00
    0.99999981796390036148E+00
    0.10000002058911383607E+01
    0.99999968318888943219E+00
    0.99999988784486770754E+00
    0.10000002383217216906E+01
    0.99999971127866416065E+00
    0.99999982545421939317E+00
    0.10000002120545088413E+01
    0.99999966988673616441E+00
    0.99999992176906138397E+00
    0.10000002512885106665E+01
    0.99999977422466967969E+00
    0.99999951853525237411E+00
    0.99999954214072450664E+00
    0.99999811083314404936E+00
    0.99999950545154392412E+00
    0.99999960363403050945E+00
    0.99999987148892832689E+00
    0.10000001031788168238E+01
    0.99999968408970885125E+00
    0.99999969641738828408E+00
    0.99999953456477119751E+00
    0.99999793935695713287E+00
    0.99999942900396388001E+00
    0.99999891250175843016E+00
    0.99999949501057827650E+00
    0.99999866544183546591E+00
    0.99999903231921982716E+00
    0.99999981800714865532E+00
    0.10000002059948920330E+01
    0.99999968324123433838E+00
    0.99999988795396432817E+00
    0.10000002386830111334E+01
    0.99999971214621163895E+00
    0.99999982747597049304E+00
    0.10000002131251923831E+01
    0.99999967146823931508E+00
    0.99999992258789793809E+00
    0.10000002516162169730E+01
    0.99999977433507492020E+00
    0.99999951884270876779E+00
    0.99999954258237422344E+00
    0.99999983535078018626E+00
    0.10000002174389386322E+01
    0.99999968985986442682E+00
    0.99999989193526794828E+00
    0.10000002443766022875E+01
    0.99999971491552919201E+00
    0.99999983248482837705E+00
    0.10000002266676446538E+01
    0.99999969124150600575E+00
    0.99999992412853744295E+00
    0.10000002801147303000E+01
    0.99999980266142474150E+00
    0.99999952677552961244E+00
    0.99999954674004198907E+00
    0.99999983638793987772E+00
    0.10000002178693043753E+01
    0.99999968998158583755E+00
    0.99999989199236327675E+00
    0.10000002444971343163E+01
    0.99999971496997797082E+00
    0.99999983262020164521E+00
    0.10000002270668923998E+01
    0.99999969226190921212E+00
    0.99999992610229737622E+00
    0.10000002814079393954E+01
    0.99999980504514929258E+00
    0.99999952726475804798E+00
    0.99999954706726024156E+00
    0.99999983539622860906E+00
    0.10000002175359303802E+01
    0.99999968990218579545E+00
    0.99999989203046513175E+00
    0.10000002447331715061E+01
    0.99999971578885704648E+00
    0.99999983452869600775E+00
    0.10000002277607331624E+01
    0.99999969292247703478E+00
    0.99999992498615430936E+00
    0.10000002804442387205E+01
    0.99999980277134059570E+00
    0.99999952704493322297E+00
    0.99999954714613159545E+00
    0.99999983565278804942E+00
    0.10000002152195366367E+01
    0.99999966004881191139E+00
    0.99999986182387767819E+00
    0.10000002420949181126E+01
    0.99999971506464147009E+00
    0.99999983458250896184E+00
    0.10000002281136937121E+01
    0.99999969394492538299E+00
    0.99999992696143535920E+00
    0.10000002816909796532E+01
    0.99999980507178565237E+00
    0.99999952720146945140E+00
    0.99999954714108219012E+00
    0.99999976849815241930E+00
    0.10000000642309467835E+01
    0.99999966744421431297E+00
    0.99999976414026658933E+00
    0.99999955108193017139E+00
    0.99999778849912168699E+00
    0.99999948076073619241E+00
    0.99999882064001710535E+00
    0.99999934620479380420E+00
    0.99999812816497979373E+00
    0.99999964850272593520E+00
    0.99999967883457197004E+00
    0.99999911373979910589E+00
    0.99999879898252486132E+00
    0.99999976849841132331E+00
    0.10000000642309818666E+01
    0.99999966744424961806E+00
    0.99999976414018376669E+00
    0.99999955108198756992E+00
    0.99999778849925191615E+00
    0.99999948076086409010E+00
    0.99999882064001177628E+00
    0.99999934620489583370E+00
    0.99999812816563782292E+00
    0.99999964850268463490E+00
    0.99999967883521301282E+00
    0.99999911373941230419E+00
    0.99999879898229260267E+00
    0.99999983324863672696E+00
    0.10000002121370803465E+01
    0.99999968640898329042E+00
    0.99999988573439158035E+00
    0.10000002295892096438E+01
    0.99999969253147868997E+00
    0.99999985530076473950E+00
    0.10000002015508424602E+01
    0.99999965285858882780E+00
    0.99999989840429792665E+00
    0.10000002669995478044E+01
    0.99999979876104805321E+00
    0.99999951464465941520E+00
    0.99999953080861481158E+00
    0.99999983323189101103E+00
    0.10000002121268216637E+01
    0.99999968635992786403E+00
    0.99999988571786657676E+00
    0.10000002295862853163E+01
    0.99999969253094522781E+00
    0.99999985530061474837E+00
    0.10000002015506344044E+01
    0.99999965285858116726E+00
    0.99999989840447434108E+00
    0.10000002669989520587E+01
    0.99999979875971611865E+00
    0.99999951464337688556E+00
    0.99999953080780112913E+00
    0.99999976849830629622E+00
    0.10000000642309516685E+01
    0.99999966744418955500E+00
    0.99999976414002123004E+00
    0.99999955108180638153E+00
    0.99999778849897780209E+00
    0.99999948076080646953E+00
    0.99999882064005518600E+00
    0.99999934620485764203E+00
    0.99999812816566457929E+00
    0.99999964850271483296E+00
    0.99999967883519824685E+00
    0.99999911373940852943E+00
    0.99999879898233701159E+00
    0.99999976849781579968E+00
    0.10000000642306527965E+01
    0.99999966744342660974E+00
    0.99999976413910296458E+00
    0.99999955108111227009E+00
    0.99999778849819054294E+00
    0.99999948076055888979E+00
    0.99999882063961842427E+00
    0.99999934620481567560E+00
    0.99999812816538413696E+00
    0.99999964850249933868E+00
    0.99999967883502993704E+00
    0.99999911373933769720E+00
    0.99999879898200272343E+00
    0.99999983305247641674E+00
    0.10000002120505846470E+01
    0.99999968609627831739E+00
    0.99999988564511299582E+00
    0.10000002295723722234E+01
    0.99999969252868481373E+00
    0.99999985530018487001E+00
    0.10000002015493552054E+01
    0.99999965285826364347E+00
    0.99999989840361858118E+00
    0.10000002669920755594E+01
    0.99999979873038324918E+00
    0.99999951462987468620E+00
    0.99999953080155168372E+00
    0.99999983255319546682E+00
    0.10000002119033939429E+01
    0.99999968574199615823E+00
    0.99999988556352470415E+00
    0.10000002295558025889E+01
    0.99999969252581921708E+00
    0.99999985529921042726E+00
    0.10000002015467743810E+01
    0.99999965285729586206E+00
    0.99999989840099978711E+00
    0.10000002669720335913E+01
    0.99999979863790811052E+00
    0.99999951460301095274E+00
    0.99999953079009451518E+00
    0.99999983599368191811E+00
    0.10000002174146687128E+01
    0.99999968777549719245E+00
    0.99999989079788986768E+00
    0.10000002442834974303E+01
    0.99999971491264982859E+00
    0.99999983261406344415E+00
    0.10000002270627594836E+01
    0.99999969227170482089E+00
    0.99999992611902055462E+00
    0.10000002814047106448E+01
    0.99999980502920648995E+00
    0.99999952719386220323E+00
    0.99999954701911697441E+00
    0.99999982833446998676E+00
    0.10000002056534438299E+01
    0.99999964930895957060E+00
    0.99999988103182113619E+00
    0.10000002401823939735E+01
    0.99999971397140041685E+00
    0.99999983243820977918E+00
    0.10000002267638736786E+01
    0.99999969221569129374E+00
    0.99999992599925080494E+00
    0.10000002804834533521E+01
    0.99999980233156948728E+00
    0.99999952483262355418E+00
    0.99999954558551207295E+00
    0.99999636000669789304E+00
    0.99999589962643309349E+00
    0.99995236308219670462E+00
    0.99999191853702862343E+00
    0.99999962535430353405E+00
    0.99999964326459578334E+00
    0.99999982891835004217E+00
    0.10000002156931384611E+01
    0.99999969254271947605E+00
    0.99999992410082860772E+00
    0.10000002364643849617E+01
    0.99999957559289376352E+00
    0.99999919298978623416E+00
    0.99999944148689778878E+00
    0.99968691804121123656E+00
    0.99994021477275207843E+00
    0.99968016358973310620E+00
    0.99995544902394140063E+00
    0.99999521081198927686E+00
    0.99999890420305259653E+00
    0.99999969220558371230E+00
    0.10000000473679933055E+01
    0.99999964728307733086E+00
    0.99999974763935139954E+00
    0.99999777838287040588E+00
    0.99997399890907490150E+00
    0.99999404853290352335E+00
    0.99999790799247900708E+00
    0.99999969683731815273E+00
    0.10000001923408630145E+01
    0.99999943337683772082E+00
    0.99999983231568256858E+00
    0.10000002416780504610E+01
    0.99999971015661148765E+00
    0.99999983151521443236E+00
    0.10000002245328349915E+01
    0.99999969166105107110E+00
    0.99999992456485842229E+00
    0.10000002707262225510E+01
    0.99999977376400517315E+00
    0.99999951198847403244E+00
    0.99999953919161943539E+00
    0.99999921928939294880E+00
    0.10000000814372902447E+01
    0.99999906863286591729E+00
    0.99999973645760420471E+00
    0.10000002360259951928E+01
    0.99999970672252636028E+00
    0.99999983032548167561E+00
    0.10000002204972229247E+01
    0.99999969014378142784E+00
    0.99999992007000271244E+00
    0.10000002666403917662E+01
    0.99999969261269050502E+00
    0.99999947991304016792E+00
    0.99999952385039925229E+00
    0.99954490965548636883E+00
    0.99989385538201469572E+00
    0.99956896300788755649E+00
    0.99990883862048207664E+00
    0.99998305391303554668E+00
    0.99999581818134453126E+00
    0.99999890428903537298E+00
    0.99999850377561660952E+00
    0.99999921784820244852E+00
    0.99999875911690927488E+00
    0.99999183525914436821E+00
    0.99994944946520658569E+00
    0.99998362114505268128E+00
    0.99999169691464995235E+00
    0.99932430790808990384E+00
    0.99980151676245898607E+00
    0.99939421348707391246E+00
    0.99985174729133252658E+00
    0.99996669670814342101E+00
    0.99999252487378109677E+00
    0.99999777678447743234E+00
    0.99999511850600897311E+00
    0.99999786101429044560E+00
    0.99999514782731802054E+00
    0.99997359613258596234E+00
    0.99989049288500775337E+00
    0.99995968854211303434E+00
    0.99997880619682744108E+00
    0.99999811083335987671E+00
    0.99999950545206406360E+00
    0.99999960363405182573E+00
    0.99999987148931346326E+00
    0.10000001031678544816E+01
    0.99999968397991034763E+00
    0.99999969642963226768E+00
    0.99999953457547885449E+00
    0.99999793937647674102E+00
    0.99999942901205651768E+00
    0.99999891250427663802E+00
    0.99999949501124374418E+00
    0.99999866544367654875E+00
    0.99999903232164200073E+00
    0.99999981800738790838E+00
    0.10000002059952870503E+01
    0.99999968324069743453E+00
    0.99999988795308536460E+00
    0.10000002386858635184E+01
    0.99999971215462291063E+00
    0.99999982750122684561E+00
    0.10000002131355838486E+01
    0.99999967147376256360E+00
    0.99999992249113445197E+00
    0.10000002516058947855E+01
    0.99999977433516551439E+00
    0.99999951884377946687E+00
    0.99999954258544876406E+00
    0.99999811083338652207E+00
    0.99999950545214377762E+00
    0.99999960363429718502E+00
    0.99999987148934432746E+00
    0.10000001031678302787E+01
    0.99999968397997518466E+00
    0.99999969642965780281E+00
    0.99999953457551016278E+00
    0.99999793937654812837E+00
    0.99999942901210570056E+00
    0.99999891250430450462E+00
    0.99999949501135443342E+00
    0.99999866544367621568E+00
    0.99999903232169407019E+00
    0.99999981800682880007E+00
    0.10000002059925650055E+01
    0.99999968322470822457E+00
    0.99999988790387073223E+00
    0.10000002386749675676E+01
    0.99999971213734462072E+00
    0.99999982749903382206E+00
    0.10000002131351468648E+01
    0.99999967147372892384E+00
    0.99999992249118874188E+00
    0.10000002516057919788E+01
    0.99999977433504516622E+00
    0.99999951884288529325E+00
    0.99999954258367473869E+00
    0.99999983533772129896E+00
    0.10000002173210231771E+01
    0.99999968872627520433E+00
    0.99999988964590336149E+00
    0.10000002442793232138E+01
    0.99999971538862053588E+00
    0.99999983450442420096E+00
    0.10000002277555166685E+01
    0.99999969294202006864E+00
    0.99999992499390666367E+00
    0.10000002804384819921E+01
    0.99999980276369349053E+00
    0.99999952699462435479E+00
    0.99999954707305693802E+00
    0.99999977318841748453E+00
    0.99999960602641790874E+00
    0.99999167152054502239E+00
    0.99995256281218247718E+00
    0.99999591435882262402E+00
    0.99999622022629908180E+00
    0.99999961186055785767E+00
    0.10000001833141429763E+01
    0.99999969108963349118E+00
    0.99999992556185102188E+00
    0.10000002692652627534E+01
    0.99999979605444733188E+00
    0.99999941971140438035E+00
    0.99999920982250345425E+00
    0.99999983440830364501E+00
    0.10000002133530563331E+01
    0.99999967075940443539E+00
    0.99999986131965989955E+00
    0.10000002323813665939E+01
    0.99999969732475246786E+00
    0.99999983166025019354E+00
    0.10000002268390810745E+01
    0.99999969282184708597E+00
    0.99999992493759071177E+00
    0.10000002801391811857E+01
    0.99999980258762644070E+00
    0.99999952557169824452E+00
    0.99999954468114971018E+00
    0.99999904915174919751E+00
    0.99999520909614336706E+00
    0.99995517997067451255E+00
    0.99968033904502384690E+00
    0.99994020190206345244E+00
    0.99968676553852398037E+00
    0.99997400243143219623E+00
    0.99999771352130983892E+00
    0.99999953302921940068E+00
    0.99999987835182990725E+00
    0.10000001030880165676E+01
    0.99999966998870315482E+00
    0.99999788728524685588E+00
    0.99999405226084625564E+00
    0.99999811083320233607E+00
    0.99999950545204341346E+00
    0.99999960363417472742E+00
    0.99999987148905034040E+00
    0.10000001031678484864E+01
    0.99999968397990146585E+00
    0.99999969642970620853E+00
    0.99999953457547963165E+00
    0.99999793937653658205E+00
    0.99999942901204452728E+00
    0.99999891250421779620E+00
    0.99999949501124052453E+00
    0.99999866544367010945E+00
    0.99999903232161113653E+00
    0.99999981800458659364E+00
    0.10000002059785753072E+01
    0.99999968315100695726E+00
    0.99999988764093716842E+00
    0.10000002385990480747E+01
    0.99999971195794845613E+00
    0.99999982746962312596E+00
    0.10000002131281171547E+01
    0.99999967147291879410E+00
    0.99999992249096303354E+00
    0.10000002516044883549E+01
    0.99999977433452491571E+00
    0.99999951883668969366E+00
    0.99999954257067735774E+00
    0.99999811083305423232E+00
    0.99999950545155136261E+00
    0.99999960363520035145E+00
    0.99999987148845270735E+00
    0.10000001031678260599E+01
    0.99999968397968741485E+00
    0.99999969642964614547E+00
    0.99999953457533818924E+00
    0.99999793937642766917E+00
    0.99999942901202265588E+00
    0.99999891250402739296E+00
    0.99999949501074769653E+00
    0.99999866544305415772E+00
    0.99999903232140541220E+00
    0.99999981800357717887E+00
    0.10000002059625756612E+01
    0.99999968307124098565E+00
    0.99999988728799005244E+00
    0.10000002384521191612E+01
    0.99999971146065425032E+00
    0.99999982737705028768E+00
    0.10000002131085810042E+01
    0.99999967147035462300E+00
    0.99999992249008873291E+00
    0.10000002516022366006E+01
    0.99999977433364561907E+00
    0.99999951882514748203E+00
    0.99999954254385992058E+00
    0.99999983056956609495E+00
    0.10000002083101431349E+01
    0.99999959433996699065E+00
    0.99999963690678039807E+00
    0.10000002080592347298E+01
    0.99999955017751063213E+00
    0.99999980874996308167E+00
    0.10000002178184701496E+01
    0.99999969140506161924E+00
    0.99999992439165430458E+00
    0.10000002780089085608E+01
    0.99999980167709801027E+00
    0.99999951620796467822E+00
    0.99999952873726927205E+00
    0.99999597132273898570E+00
    0.99998305858933544954E+00
    0.99990856115207793486E+00
    0.99956913059969609847E+00
    0.99989384499744193846E+00
    0.99954476513632206647E+00
    0.99994943085267251615E+00
    0.99999175689357155949E+00
    0.99999859781308986229E+00
    0.99999946841154474519E+00
    0.99999856191722447107E+00
    0.99999889103683414771E+00