# vtk DataFile Version 3.0
LAPLACIEN  2D
ASCII
DATASET UNSTRUCTURED_GRID
 POINTS        1857  float
   3.1250000000000000E-002  0.93750000000000000        0.0000000000000000     
   6.2500000000000000E-002  0.93750000000000000        0.0000000000000000     
   6.2500000000000000E-002  0.96875000000000000        0.0000000000000000     
   1.8749999999999999E-002  0.95625000000000004        0.0000000000000000     
   4.0625000000000001E-002  0.95937499999999998        0.0000000000000000     
   4.3749999999999997E-002  0.98124999999999996        0.0000000000000000     
   2.1874999999999999E-002  0.97812500000000002        0.0000000000000000     
   9.3750000000000000E-002  0.93750000000000000        0.0000000000000000     
  0.12500000000000000       0.93750000000000000        0.0000000000000000     
  0.12500000000000000       0.96875000000000000        0.0000000000000000     
   8.1250000000000003E-002  0.95625000000000004        0.0000000000000000     
  0.10312499999999999       0.95937499999999998        0.0000000000000000     
  0.10625000000000000       0.98124999999999996        0.0000000000000000     
   8.4375000000000006E-002  0.97812500000000002        0.0000000000000000     
   3.1250000000000000E-002  0.87500000000000000        0.0000000000000000     
   6.2500000000000000E-002  0.87500000000000000        0.0000000000000000     
   6.2500000000000000E-002  0.90625000000000000        0.0000000000000000     
   1.8749999999999999E-002  0.89375000000000004        0.0000000000000000     
   4.0625000000000001E-002  0.89687499999999998        0.0000000000000000     
   4.3749999999999997E-002  0.91874999999999996        0.0000000000000000     
   2.1874999999999999E-002  0.91562500000000002        0.0000000000000000     
   9.3750000000000000E-002  0.87500000000000000        0.0000000000000000     
  0.12500000000000000       0.87500000000000000        0.0000000000000000     
  0.12500000000000000       0.90625000000000000        0.0000000000000000     
   8.1250000000000003E-002  0.89375000000000004        0.0000000000000000     
  0.10312499999999999       0.89687499999999998        0.0000000000000000     
  0.10625000000000000       0.91874999999999996        0.0000000000000000     
   8.4375000000000006E-002  0.91562500000000002        0.0000000000000000     
  0.15625000000000000       0.93750000000000000        0.0000000000000000     
  0.18750000000000000       0.93750000000000000        0.0000000000000000     
  0.18750000000000000       0.96875000000000000        0.0000000000000000     
  0.14374999999999999       0.95625000000000004        0.0000000000000000     
  0.16562499999999999       0.95937499999999998        0.0000000000000000     
  0.16875000000000001       0.98124999999999996        0.0000000000000000     
  0.14687500000000001       0.97812500000000002        0.0000000000000000     
  0.21875000000000000       0.93750000000000000        0.0000000000000000     
  0.25000000000000000       0.93750000000000000        0.0000000000000000     
  0.25000000000000000       0.96875000000000000        0.0000000000000000     
  0.20624999999999999       0.95625000000000004        0.0000000000000000     
  0.22812499999999999       0.95937499999999998        0.0000000000000000     
  0.23125000000000001       0.98124999999999996        0.0000000000000000     
  0.20937500000000001       0.97812500000000002        0.0000000000000000     
  0.15625000000000000       0.87500000000000000        0.0000000000000000     
  0.18750000000000000       0.87500000000000000        0.0000000000000000     
  0.18750000000000000       0.90625000000000000        0.0000000000000000     
  0.14374999999999999       0.89375000000000004        0.0000000000000000     
  0.16562499999999999       0.89687499999999998        0.0000000000000000     
  0.16875000000000001       0.91874999999999996        0.0000000000000000     
  0.14687500000000001       0.91562500000000002        0.0000000000000000     
  0.21875000000000000       0.87500000000000000        0.0000000000000000     
  0.25000000000000000       0.87500000000000000        0.0000000000000000     
  0.25000000000000000       0.90625000000000000        0.0000000000000000     
  0.20624999999999999       0.89375000000000004        0.0000000000000000     
  0.22812499999999999       0.89687499999999998        0.0000000000000000     
  0.23125000000000001       0.91874999999999996        0.0000000000000000     
  0.20937500000000001       0.91562500000000002        0.0000000000000000     
   3.1250000000000000E-002  0.81250000000000000        0.0000000000000000     
   6.2500000000000000E-002  0.81250000000000000        0.0000000000000000     
   6.2500000000000000E-002  0.84375000000000000        0.0000000000000000     
   1.8749999999999999E-002  0.83125000000000004        0.0000000000000000     
   4.0625000000000001E-002  0.83437499999999998        0.0000000000000000     
   4.3749999999999997E-002  0.85624999999999996        0.0000000000000000     
   2.1874999999999999E-002  0.85312500000000002        0.0000000000000000     
   9.3750000000000000E-002  0.81250000000000000        0.0000000000000000     
  0.12500000000000000       0.81250000000000000        0.0000000000000000     
  0.12500000000000000       0.84375000000000000        0.0000000000000000     
   8.1250000000000003E-002  0.83125000000000004        0.0000000000000000     
  0.10312499999999999       0.83437499999999998        0.0000000000000000     
  0.10625000000000000       0.85624999999999996        0.0000000000000000     
   8.4375000000000006E-002  0.85312500000000002        0.0000000000000000     
   3.1250000000000000E-002  0.75000000000000000        0.0000000000000000     
   6.2500000000000000E-002  0.75000000000000000        0.0000000000000000     
   6.2500000000000000E-002  0.78125000000000000        0.0000000000000000     
   1.8749999999999999E-002  0.76875000000000004        0.0000000000000000     
   4.0625000000000001E-002  0.77187499999999998        0.0000000000000000     
   4.3749999999999997E-002  0.79374999999999996        0.0000000000000000     
   2.1874999999999999E-002  0.79062500000000002        0.0000000000000000     
   9.3750000000000000E-002  0.75000000000000000        0.0000000000000000     
  0.12500000000000000       0.75000000000000000        0.0000000000000000     
  0.12500000000000000       0.78125000000000000        0.0000000000000000     
   8.1250000000000003E-002  0.76875000000000004        0.0000000000000000     
  0.10312499999999999       0.77187499999999998        0.0000000000000000     
  0.10625000000000000       0.79374999999999996        0.0000000000000000     
   8.4375000000000006E-002  0.79062500000000002        0.0000000000000000     
  0.15625000000000000       0.81250000000000000        0.0000000000000000     
  0.18750000000000000       0.81250000000000000        0.0000000000000000     
  0.18750000000000000       0.84375000000000000        0.0000000000000000     
  0.14374999999999999       0.83125000000000004        0.0000000000000000     
  0.16562499999999999       0.83437499999999998        0.0000000000000000     
  0.16875000000000001       0.85624999999999996        0.0000000000000000     
  0.14687500000000001       0.85312500000000002        0.0000000000000000     
  0.21875000000000000       0.81250000000000000        0.0000000000000000     
  0.25000000000000000       0.81250000000000000        0.0000000000000000     
  0.25000000000000000       0.84375000000000000        0.0000000000000000     
  0.20624999999999999       0.83125000000000004        0.0000000000000000     
  0.22812499999999999       0.83437499999999998        0.0000000000000000     
  0.23125000000000001       0.85624999999999996        0.0000000000000000     
  0.20937500000000001       0.85312500000000002        0.0000000000000000     
  0.15625000000000000       0.75000000000000000        0.0000000000000000     
  0.18750000000000000       0.75000000000000000        0.0000000000000000     
  0.18750000000000000       0.78125000000000000        0.0000000000000000     
  0.14374999999999999       0.76875000000000004        0.0000000000000000     
  0.16562499999999999       0.77187499999999998        0.0000000000000000     
  0.16875000000000001       0.79374999999999996        0.0000000000000000     
  0.14687500000000001       0.79062500000000002        0.0000000000000000     
  0.21875000000000000       0.75000000000000000        0.0000000000000000     
  0.25000000000000000       0.75000000000000000        0.0000000000000000     
  0.25000000000000000       0.78125000000000000        0.0000000000000000     
  0.20624999999999999       0.76875000000000004        0.0000000000000000     
  0.22812499999999999       0.77187499999999998        0.0000000000000000     
  0.23125000000000001       0.79374999999999996        0.0000000000000000     
  0.20937500000000001       0.79062500000000002        0.0000000000000000     
  0.28125000000000000       0.93750000000000000        0.0000000000000000     
  0.31250000000000000       0.93750000000000000        0.0000000000000000     
  0.31250000000000000       0.96875000000000000        0.0000000000000000     
  0.26874999999999999       0.95625000000000004        0.0000000000000000     
  0.29062500000000002       0.95937499999999998        0.0000000000000000     
  0.29375000000000001       0.98124999999999996        0.0000000000000000     
  0.27187499999999998       0.97812500000000002        0.0000000000000000     
  0.34375000000000000       0.93750000000000000        0.0000000000000000     
  0.37500000000000000       0.93750000000000000        0.0000000000000000     
  0.37500000000000000       0.96875000000000000        0.0000000000000000     
  0.33124999999999999       0.95625000000000004        0.0000000000000000     
  0.35312500000000002       0.95937499999999998        0.0000000000000000     
  0.35625000000000001       0.98124999999999996        0.0000000000000000     
[...]
 CELL_DATA        3584
 SCALARS Endothelial_cells float
 LOOKUP_TABLE default
    0.99999302311346982552E+00
    0.99999494833112601011E+00
    0.99999616367274923867E+00
    0.99999626519879736275E+00
    0.99999500217371417587E+00
    0.99999296671166670869E+00
    0.99999463648536368598E+00
    0.99999403161692534958E+00
    0.99999511600645907272E+00
    0.99999537888981837597E+00
    0.99999426075203956543E+00
    0.99999469187734013609E+00
    0.99999375786666522270E+00
    0.99999372350677873111E+00
    0.99999725678989015432E+00
    0.99999747478969125414E+00
    0.99999705785834913652E+00
    0.99999680814199709555E+00
    0.99999556149215529377E+00
    0.99999292436365916359E+00
    0.99999487612233706191E+00
    0.99999436682091269457E+00
    0.99999465475471438491E+00
    0.99999340291598204367E+00
    0.99999576060396111465E+00
    0.99999642420541445809E+00
    0.99999548591090892113E+00
    0.99999481017660063475E+00
    0.99999331495499943490E+00
    0.99999555943366169597E+00
    0.99999662787406495834E+00
    0.99999740138706605386E+00
    0.99999764160164217319E+00
    0.99999737276155487020E+00
    0.99999660635856002511E+00
    0.99999561667084735372E+00
    0.99999295604510030078E+00
    0.99999464729641507343E+00
    0.99999450316801330452E+00
    0.99999500108597783044E+00
    0.99999480445857247268E+00
    0.99999551226141358828E+00
    0.99999725230836877810E+00
    0.99999761612714233028E+00
    0.99999593160643585055E+00
    0.99999619119826577140E+00
    0.99999757967230906708E+00
    0.99999703513281235079E+00
    0.99999735117450017086E+00
    0.99999803439176848663E+00
    0.99999737816189582240E+00
    0.99999775958813186261E+00
    0.99999823815185351350E+00
    0.99999743352986292244E+00
    0.99999722867084228639E+00
    0.99999720760769639227E+00
    0.99999699002654562907E+00
    0.99999718282457694674E+00
    0.99999609285952628657E+00
    0.99999599904716862664E+00
    0.99999540264231046027E+00
    0.99999279745203295544E+00
    0.99999493946561801572E+00
    0.99999446998790120222E+00
    0.99999464928310399792E+00
    0.99999328453933922223E+00
    0.99999595673493291148E+00
    0.99999669982147321168E+00
    0.99999554543120738881E+00
    0.99999488885376985881E+00
    0.99999328204200443881E+00
    0.99999348487411066078E+00
    0.99998904769668273129E+00
    0.99999043366149686918E+00
    0.99999278409507585952E+00
    0.99999134834366631974E+00
    0.99999434075148296852E+00
    0.99999378178899422931E+00
    0.99999432418201306128E+00
    0.99999288013515386098E+00
    0.99999510037543759555E+00
    0.99999537261876891847E+00
    0.99999372122551011266E+00
    0.99999318407354365057E+00
    0.99999069645424165653E+00
    0.99998996077598145682E+00
    0.99998006858752441772E+00
    0.99998160845778027994E+00
    0.99999083587019677033E+00
    0.99999225206108832698E+00
    0.99999555773831383387E+00
    0.99999651516074428148E+00
    0.99999677538290310252E+00
    0.99999699711230560784E+00
    0.99999650006606599639E+00
    0.99999516333343319019E+00
    0.99999359291963951790E+00
    0.99999372915831985509E+00
    0.99994413771342305353E+00
    0.99994144261908968208E+00
    0.99988831443665704413E+00
    0.99990357495613380046E+00
    0.99995326494365743830E+00
    0.99996778107523021095E+00
    0.99998431612755811493E+00
    0.99998442653835906135E+00
    0.99999122820833885594E+00
    0.99999065352648852656E+00
    0.99998117774386496848E+00
    0.99997472918162910727E+00
    0.99996859382014990913E+00
    0.99997071697628681086E+00
    0.99999327085361966461E+00
    0.99999523929111300280E+00
    0.99999560929929387498E+00
    0.99999624392296682096E+00
    0.99999702459206096794E+00
    0.99999682341645723671E+00
    0.99999664121753606416E+00
    0.99999567878784922925E+00
    0.99999312013199626037E+00
    0.99999471214962609711E+00
    0.99999449357968506202E+00
    0.99999507569307466426E+00
    0.99999458888939984913E+00
    0.99999521751515141332E+00
    0.99999250621285495910E+00
    0.99999085798641684786E+00
    0.99998123775346592357E+00
    0.99998022498818051051E+00
    0.99998988461750404344E+00
    0.99999045552459486785E+00
    0.99999504670452576960E+00
    0.99999637301659705102E+00
    0.99999689032122163201E+00
    0.99999701915169258992E+00
    0.99999664104387941954E+00
    0.99999561939521419696E+00
    0.99999372357176652404E+00
    0.99999356657233084977E+00
    0.99999173480154424087E+00
    0.99999267747427322828E+00
    0.99998997727547589420E+00
    0.99998914670293570506E+00
    0.99999331932020973923E+00
    0.99999307607762677463E+00
    0.99999518717523649958E+00
    0.99999480581887700836E+00
    0.99999277528675400983E+00
    0.99999444050682195773E+00
    0.99999391710308194181E+00
    0.99999435692847282731E+00
    0.99999303170113040817E+00
    0.99999349999569742131E+00
    0.99996807437210188940E+00
    0.99995328922676474104E+00
    0.99990318606832795378E+00
    0.99988844976043922408E+00
    0.99994135066438405435E+00
    0.99994394264968833319E+00
    0.99997456179597765669E+00
    0.99998103829707030155E+00
    0.99999062910810798677E+00
    0.99999151433584909654E+00
    0.99998454311304363351E+00
    0.99998435877258429194E+00
    0.99997069718979580966E+00
    0.99996854517910593874E+00
    0.99993675058330611094E+00
    0.99992028261016374646E+00
    0.99984010590514715844E+00
    0.99984036885885618773E+00
    0.99992020627082278672E+00
    0.99993643304574908459E+00
    0.99997111249499770480E+00
    0.99997471557734274317E+00
    0.99998749559007626964E+00
    0.99998764174967247342E+00
    0.99997485317759315926E+00
    0.99997121180103554217E+00
    0.99995459518622098471E+00
    0.99995457792534914176E+00
    0.99951798503823996445E+00
    0.99944885640284963912E+00
    0.99896166161922428373E+00
    0.99904066690227932845E+00
    0.99951339684305184896E+00
    0.99964717589944562803E+00
    0.99983367307042170236E+00
    0.99983628009842429041E+00
    0.99992143070796668525E+00
    0.99991615160286795305E+00
    0.99981467140855684317E+00
    0.99977602019066225125E+00
    0.99969283489873461690E+00
    0.99970499010316205002E+00
    0.99964749817617981620E+00
    0.99951342612889382266E+00
    0.99904026585028404828E+00
    0.99896178758339415626E+00
    0.99944873274289125487E+00
    0.99951771152552648658E+00
    0.99977588112406834409E+00
    0.99981454981135409188E+00
    0.99991617732466842039E+00
    0.99992173708388365494E+00
    0.99983644243511926586E+00
    0.99983376387725297896E+00
    0.99970497046349804382E+00
    0.99969277824667390764E+00
    0.99696035845406816289E+00
    0.99616666512844875836E+00
    0.99270623256635848186E+00
    0.99270648918630088886E+00
    0.99616656917005452776E+00
    0.99696000854297261995E+00
    0.99852464028031129306E+00
    0.99864890374275949725E+00
    0.99935086342364931600E+00
    0.99935099542267558093E+00
    0.99864904024069256483E+00
    0.99852473229745120076E+00
    0.99772380357159395903E+00
    0.99772378257840832472E+00
    0.99997711750981133072E+00
    0.99997942021695052084E+00
    0.99996386096749778627E+00
    0.99997162522879967650E+00
    0.99998365876691230891E+00
    0.99998581375367601165E+00
    0.99999079610581287358E+00
    0.99999026808918556330E+00
    0.99999218587468141628E+00
    0.99999075251009572618E+00
    0.99999031690301942721E+00
    0.99998818986270887610E+00
    0.99998661983849057577E+00
    0.99998694849767522097E+00
    0.99993005888638442080E+00
    0.99994285309713759613E+00
    0.99990544029246819502E+00
    0.99993111978056559153E+00
    0.99996326337261853823E+00
    0.99997388123467723098E+00
    0.99998236994637734742E+00
    0.99998137003562037606E+00
    0.99998671332056199290E+00
    0.99998464338144787966E+00
    0.99997640657171926737E+00
    0.99996572330496702463E+00
    0.99996816597609272659E+00
    0.99997146177664586464E+00
    0.99972904841760668049E+00
    0.99974283434841193507E+00
    0.99954315413854344374E+00
    0.99963215212772627005E+00
    0.99981870845246345603E+00
    0.99988673573073560963E+00
    0.99994469885844416979E+00
    0.99993704937847505132E+00
    0.99996689417438788805E+00
    0.99996050404924841093E+00
    0.99991103897792621424E+00
    0.99987392235144756381E+00
    0.99986527177569783920E+00
    0.99987961492710863975E+00
    0.99907828550792021627E+00
    0.99921184325157186290E+00
    0.99870930422012593741E+00
    0.99902618088814565400E+00
    0.99950788077651719910E+00
    0.99971352750653419417E+00
    0.99985314760220522778E+00
    0.99981454188699425689E+00
    0.99989652374853399408E+00
    0.99986695496589872434E+00
    0.99970153840531617018E+00
    0.99954888076404813102E+00
    0.99958713847384073059E+00
    0.99964490230389291270E+00
    0.99984390406614076507E+00
    0.99988406866825951802E+00
    0.99982281914712967108E+00
    0.99987869113780292185E+00
    0.99993562097100252561E+00
    0.99995900103428680961E+00
    0.99997116949240927308E+00
    0.99996782036597875454E+00
    0.99997597951572880781E+00
    0.99997188138008163971E+00
    0.99995069310370199300E+00
    0.99992123486180395364E+00
    0.99993815303689959073E+00
    0.99994752308949530484E+00
    0.99975484652619184267E+00
    0.99983375588354073127E+00
    0.99976745834684432879E+00
    0.99984938219810026716E+00
    0.99991839594636333644E+00
    0.99995151334293119749E+00
    0.99996354329470427125E+00
    0.99995619159325033198E+00
    0.99996482589588697731E+00
    0.99995737602523726562E+00
    0.99992353645160458875E+00
    0.99986964061757566125E+00
    0.99991183942250638772E+00
    0.99992804986151329061E+00
    0.99784327701131980692E+00
    0.99833115983083398071E+00
    0.99749420690687418123E+00
    0.99822022798652987330E+00
    0.99907452395655638178E+00
    0.99949324660560667777E+00
    0.99972411571583064127E+00
    0.99961727111949383318E+00
    0.99976723088511620929E+00
    0.99968111121255454066E+00
    0.99930409138888043330E+00
    0.99888160400419390150E+00
    0.99912035521983111330E+00
    0.99926994445005201673E+00
    0.99653412474405789201E+00
    0.99756102296929805018E+00
    0.99666300007908859016E+00
    0.99776132343465862018E+00
    0.99879836599715365875E+00
    0.99937820911262176260E+00
    0.99963838737867627415E+00
    0.99945093045837107848E+00
    0.99963288963902963147E+00
    0.99946666900194569561E+00
    0.99887538321642410644E+00
    0.99808588460288449884E+00
    0.99870260139509392516E+00
    0.99895963020653510966E+00
    0.99738271614089979433E+00
    0.99734235628270428986E+00
    0.99533921299749650302E+00
    0.99603599538226594845E+00
    0.99794862697905095672E+00
    0.99862838782605489740E+00
    0.99931539080385134444E+00
    0.99925176336407228739E+00
    0.99961380496755058989E+00
    0.99955654979498564927E+00
    0.99903166263348419651E+00
    0.99873317329262689679E+00
    0.99852845420486568973E+00
    0.99864542543083301140E+00
    0.99043448678535261909E+00
    0.99138834253472274405E+00
    0.98618118150661948640E+00
    0.98902883042077527342E+00
    0.99415735091329693329E+00
    0.99635640019182158955E+00
    0.99806383304490842168E+00
    0.99766307104516827042E+00
    0.99867765958719278974E+00
    0.99837263174971968560E+00
    0.99654558796389525188E+00
    0.99511381249470465260E+00
    0.99521468237951937752E+00
    0.99576836147590763737E+00
    0.97893193032592673575E+00
    0.97693886999647572278E+00
    0.95760003377880253961E+00
    0.96374469740963375486E+00
    0.98120103430834615388E+00
    0.98685690654861357718E+00
    0.99328778693019514900E+00
    0.99306395536285474446E+00
    0.99641123856916025137E+00
    0.99610397491674707027E+00
    0.99182741498970639071E+00
    0.98998690717778103920E+00
    0.98712504580173321411E+00
    0.98789489569759869614E+00
    0.91195436684426256502E+00
    0.92259855740233986943E+00
    0.88196020605788072455E+00
    0.90455927887209419680E+00
    0.94631505589317110871E+00
    0.96436677726125907828E+00
    0.98017340212007109113E+00
    0.97707422917672492879E+00
    0.98673528312717606603E+00
    0.98425657859514181780E+00
    0.96774434701031519790E+00
    0.95489201114946942184E+00
    0.95551396446183367583E+00
    0.96029759485655152851E+00
    0.97703021145997992480E+00
    0.98131340915013209880E+00
    0.97275739961527107891E+00
    0.97955402734916463547E+00
    0.98873119858268998517E+00
    0.99338887905604844608E+00
    0.99624537548884384286E+00
    0.99501812911330711486E+00
    0.99689225707078876759E+00
    0.99592318498956522443E+00
    0.99165736316357011582E+00
    0.98739950848188640098E+00
    0.98948084275780312513E+00
    0.99102816246603375738E+00
    0.96289241403591030455E+00
    0.97246753015313769364E+00
    0.96360129794866855590E+00
    0.97412619006360889884E+00
    0.98521530133357015924E+00
    0.99180977685446680692E+00
    0.99501124891004211204E+00
    0.99273864829090630035E+00
    0.99499001278168142104E+00
    0.99302234522075838452E+00
    0.98628520846583844772E+00
    0.97804690945679928493E+00
    0.98426853602668662457E+00
    0.98703643039990507368E+00
    0.82779712502967250920E+00
    0.85475068075789217836E+00
    0.80604006499865343827E+00
    0.84138014192810017811E+00
    0.90253361829809874983E+00
    0.93644709770170120322E+00
    0.96138794247966574691E+00
    0.95153435768977678855E+00
    0.96827071864379354871E+00
    0.96021395012180177364E+00
    0.92572400426789458461E+00
    0.89373469388471571406E+00
    0.90841563336222264091E+00
    0.91956408792091137716E+00
    0.76218271677481874704E+00
    0.80563569474034701923E+00
    0.76267892402469239510E+00
    0.80938300455897149721E+00
    0.87626653793362430100E+00
    0.92206381979713958330E+00
    0.94882837788795648670E+00
    0.93034431148152896274E+00
    0.94898092433938607826E+00
    0.93301518447379283572E+00
    0.88477915791130390399E+00
    0.83315828693203208832E+00
    0.87002209383072093285E+00
    0.88801928770975369076E+00
    0.99998618137857586685E+00
    0.99998355181910281164E+00
    0.99997113877623111655E+00
    0.99996394189003023900E+00
    0.99997927431415767341E+00
    0.99997692141280514200E+00
    0.99998794294400517035E+00
    0.99999001120368280482E+00
    0.99999067749822845297E+00
    0.99999236604563879194E+00
    0.99999044984073170994E+00
    0.99999075634516421118E+00
    0.99998683667020182853E+00
    0.99998642910071744438E+00
    0.99988704830591179640E+00
    0.99981874002252613121E+00
    0.99963176013825771893E+00
    0.99954328408183668042E+00
    0.99974277343554973640E+00
    0.99972888569457174501E+00
    0.99987374860426503353E+00
    0.99991091323009828606E+00
    0.99996052235404431219E+00
    0.99996720501391334057E+00
    0.99993717534653581147E+00
    0.99994473625755664337E+00
    0.99987960167878953133E+00
    0.99986523378793035199E+00
    0.99997431149036664078E+00
    0.99996317889366004295E+00
    0.99993062802405952016E+00
    0.99990551980926178910E+00
    0.99994272009477713770E+00
    0.99992986676585005057E+00
    0.99996544978680357296E+00
    0.99997610681365223240E+00
    0.99998468199098300424E+00
    0.99998705914545871209E+00
    0.99998158778964307825E+00
    0.99998232915373874707E+00
    0.99997138097739235452E+00
    0.99996800019740195165E+00
    0.99971385156830561147E+00
    0.99950791855505716210E+00
    0.99902578958792365160E+00
    0.99870943488011998390E+00
    0.99921178621865303082E+00
    0.99907813031694348016E+00
    0.99954870685419960896E+00
    0.99970142343786183581E+00
    0.99986699618532570710E+00
    0.99989684906701559175E+00
    0.99981467669727075442E+00
    0.99985318791088773072E+00
    0.99964489530136135809E+00
    0.99958710655764348996E+00
    0.99862871543572284683E+00
    0.99794865862267567724E+00
    0.99603559601582791760E+00
    0.99533932611202236007E+00
    0.99734224797854653666E+00
    0.99738252051718845337E+00
    0.99873298140487909436E+00
    0.99903153459651961033E+00
    0.99955659191326939883E+00
    0.99961413400438636767E+00
    0.99925189547423587388E+00
    0.99931545325106163613E+00
    0.99864540343018615154E+00
    0.99852839850085295392E+00
    0.98685724707355504393E+00
    0.98120108717061516046E+00
    0.96374434596758951077E+00
    0.95760016966603844768E+00
    0.97693875078082059726E+00
    0.97893165864641029650E+00
    0.98998677263706602591E+00
    0.99182731378359079155E+00
    0.99610403737264485713E+00
    0.99641155882304932589E+00
    0.99306408941723600670E+00
    0.99328784540512438106E+00
    0.98789488355400578712E+00
    0.98712499811523857218E+00
    0.99635673338828012469E+00
    0.99415739213864362522E+00
    0.98902844372022946651E+00
    0.98618131275555787063E+00
    0.99138828647452292842E+00
    0.99043433929608715172E+00
    0.99511363434009802997E+00
    0.99654547560343254009E+00
    0.99837268648799726289E+00
    0.99867799960500813761E+00
    0.99766321320339412804E+00
    0.99806389871860445862E+00
    0.99576835521255080419E+00
    0.99521465005473297438E+00
    0.96436714076076146540E+00
    0.94631517889758820505E+00
    0.90455907901246113134E+00
    0.88196049778952223530E+00
    0.92259860437485341489E+00
    0.91195431713017760522E+00
    0.95489188391156354374E+00
    0.96774428031456738442E+00
    0.98425665723472299806E+00
    0.98673563344596415536E+00
    0.97707439772184179194E+00
    0.98017348162890050034E+00
    0.96029764383163562780E+00
    0.95551399166397643636E+00
    0.99995943793955566203E+00
    0.99993554554784280786E+00
    0.99987819824801205115E+00
    0.99982289852878047931E+00
    0.99988394358963139652E+00
    0.99984371558371587518E+00
    0.99992095908181732877E+00
    0.99995043625818669231E+00
    0.99997204126010785785E+00
    0.99997648956581730584E+00
    0.99996799291162985490E+00
    0.99997102046051289381E+00
    0.99994745174469967797E+00
    0.99993800580564196068E+00
    0.99949356997883098686E+00
    0.99907456203336875156E+00
    0.99821983499533695205E+00
    0.99749433643184415299E+00
    0.99833110401406621737E+00
    0.99784312491382032295E+00
    0.99888143119229078071E+00
    0.99930398264934250374E+00
    0.99968116476470825216E+00
    0.99976756376271336269E+00
    0.99961740989810754510E+00
    0.99972415620128463054E+00
    0.99926993987845524892E+00
    0.99912032613014867266E+00
    0.99995154207744563202E+00
    0.99991823322707751309E+00
    0.99984886448972243311E+00
    0.99976748293161132874E+00
    0.99983361933517800324E+00
    0.99975465136093821794E+00
    0.99986936353777300379E+00
    0.99992329489049158742E+00
    0.99995757141698793369E+00
    0.99996538812890967129E+00
    0.99995635638416213720E+00
    0.99996327005644614072E+00
    0.99992796804128214472E+00
    0.99991169301255966584E+00
    0.99937805014631375666E+00
    0.99879824364660030334E+00
    0.99776085412387793827E+00
    0.99666303239552000992E+00
    0.99756093320019623150E+00
    0.99653396109642788936E+00
    0.99808570765089665855E+00
    0.99887526614293786764E+00
    0.99946671931804154099E+00
    0.99963321228653623240E+00
    0.99945102175573841130E+00
    0.99963829315809205056E+00
    0.99895957418797687311E+00
    0.99870254286675141930E+00
    0.99338921046035233431E+00
    0.98873124251749255897E+00
    0.97955364558850088752E+00
    0.97275753069192694156E+00
    0.98131335814477327339E+00
    0.97703007456054280500E+00
    0.98739933838726501314E+00
    0.99165725696664919209E+00
    0.99592324623040551224E+00
    0.99689260079960217986E+00
    0.99501827412283616603E+00
    0.99624544115649071863E+00
    0.99102815971910951376E+00
    0.98948081442173618782E+00
    0.93644746477192697398E+00
    0.90253379323217874930E+00
    0.84138003133827565794E+00
    0.80604041740540322003E+00
    0.85475084832648640099E+00
    0.82779730987400512721E+00
    0.89373470933355203538E+00
    0.92572401503547729895E+00
    0.96021406013254961831E+00
    0.96827107562334646662E+00
    0.95153454858657871007E+00
    0.96138802972776593592E+00