# vtk DataFile Version 3.0
LAPLACIEN  2D
ASCII
DATASET UNSTRUCTURED_GRID
 POINTS        1857  float
   3.1250000000000000E-002  0.93750000000000000        0.0000000000000000     
   6.2500000000000000E-002  0.93750000000000000        0.0000000000000000     
   6.2500000000000000E-002  0.96875000000000000        0.0000000000000000     
   1.8749999999999999E-002  0.95625000000000004        0.0000000000000000     
   4.0625000000000001E-002  0.95937499999999998        0.0000000000000000     
   4.3749999999999997E-002  0.98124999999999996        0.0000000000000000     
   2.1874999999999999E-002  0.97812500000000002        0.0000000000000000     
   9.3750000000000000E-002  0.93750000000000000        0.0000000000000000     
  0.12500000000000000       0.93750000000000000        0.0000000000000000     
  0.12500000000000000       0.96875000000000000        0.0000000000000000     
   8.1250000000000003E-002  0.95625000000000004        0.0000000000000000     
  0.10312499999999999       0.95937499999999998        0.0000000000000000     
  0.10625000000000000       0.98124999999999996        0.0000000000000000     
   8.4375000000000006E-002  0.97812500000000002        0.0000000000000000     
   3.1250000000000000E-002  0.87500000000000000        0.0000000000000000     
   6.2500000000000000E-002  0.87500000000000000        0.0000000000000000     
   6.2500000000000000E-002  0.90625000000000000        0.0000000000000000     
   1.8749999999999999E-002  0.89375000000000004        0.0000000000000000     
   4.0625000000000001E-002  0.89687499999999998        0.0000000000000000     
   4.3749999999999997E-002  0.91874999999999996        0.0000000000000000     
   2.1874999999999999E-002  0.91562500000000002        0.0000000000000000     
   9.3750000000000000E-002  0.87500000000000000        0.0000000000000000     
  0.12500000000000000       0.87500000000000000        0.0000000000000000     
  0.12500000000000000       0.90625000000000000        0.0000000000000000     
   8.1250000000000003E-002  0.89375000000000004        0.0000000000000000     
  0.10312499999999999       0.89687499999999998        0.0000000000000000     
  0.10625000000000000       0.91874999999999996        0.0000000000000000     
   8.4375000000000006E-002  0.91562500000000002        0.0000000000000000     
  0.15625000000000000       0.93750000000000000        0.0000000000000000     
  0.18750000000000000       0.93750000000000000        0.0000000000000000     
  0.18750000000000000       0.96875000000000000        0.0000000000000000     
  0.14374999999999999       0.95625000000000004        0.0000000000000000     
  0.16562499999999999       0.95937499999999998        0.0000000000000000     
  0.16875000000000001       0.98124999999999996        0.0000000000000000     
  0.14687500000000001       0.97812500000000002        0.0000000000000000     
  0.21875000000000000       0.93750000000000000        0.0000000000000000     
  0.25000000000000000       0.93750000000000000        0.0000000000000000     
  0.25000000000000000       0.96875000000000000        0.0000000000000000     
  0.20624999999999999       0.95625000000000004        0.0000000000000000     
  0.22812499999999999       0.95937499999999998        0.0000000000000000     
  0.23125000000000001       0.98124999999999996        0.0000000000000000     
  0.20937500000000001       0.97812500000000002        0.0000000000000000     
  0.15625000000000000       0.87500000000000000        0.0000000000000000     
  0.18750000000000000       0.87500000000000000        0.0000000000000000     
  0.18750000000000000       0.90625000000000000        0.0000000000000000     
  0.14374999999999999       0.89375000000000004        0.0000000000000000     
  0.16562499999999999       0.89687499999999998        0.0000000000000000     
  0.16875000000000001       0.91874999999999996        0.0000000000000000     
  0.14687500000000001       0.91562500000000002        0.0000000000000000     
  0.21875000000000000       0.87500000000000000        0.0000000000000000     
  0.25000000000000000       0.87500000000000000        0.0000000000000000     
  0.25000000000000000       0.90625000000000000        0.0000000000000000     
  0.20624999999999999       0.89375000000000004        0.0000000000000000     
  0.22812499999999999       0.89687499999999998        0.0000000000000000     
  0.23125000000000001       0.91874999999999996        0.0000000000000000     
  0.20937500000000001       0.91562500000000002        0.0000000000000000     
   3.1250000000000000E-002  0.81250000000000000        0.0000000000000000     
   6.2500000000000000E-002  0.81250000000000000        0.0000000000000000     
   6.2500000000000000E-002  0.84375000000000000        0.0000000000000000     
   1.8749999999999999E-002  0.83125000000000004        0.0000000000000000     
   4.0625000000000001E-002  0.83437499999999998        0.0000000000000000     
   4.3749999999999997E-002  0.85624999999999996        0.0000000000000000     
   2.1874999999999999E-002  0.85312500000000002        0.0000000000000000     
   9.3750000000000000E-002  0.81250000000000000        0.0000000000000000     
  0.12500000000000000       0.81250000000000000        0.0000000000000000     
  0.12500000000000000       0.84375000000000000        0.0000000000000000     
   8.1250000000000003E-002  0.83125000000000004        0.0000000000000000     
  0.10312499999999999       0.83437499999999998        0.0000000000000000     
  0.10625000000000000       0.85624999999999996        0.0000000000000000     
   8.4375000000000006E-002  0.85312500000000002        0.0000000000000000     
   3.1250000000000000E-002  0.75000000000000000        0.0000000000000000     
   6.2500000000000000E-002  0.75000000000000000        0.0000000000000000     
   6.2500000000000000E-002  0.78125000000000000        0.0000000000000000     
   1.8749999999999999E-002  0.76875000000000004        0.0000000000000000     
   4.0625000000000001E-002  0.77187499999999998        0.0000000000000000     
   4.3749999999999997E-002  0.79374999999999996        0.0000000000000000     
   2.1874999999999999E-002  0.79062500000000002        0.0000000000000000     
   9.3750000000000000E-002  0.75000000000000000        0.0000000000000000     
  0.12500000000000000       0.75000000000000000        0.0000000000000000     
  0.12500000000000000       0.78125000000000000        0.0000000000000000     
   8.1250000000000003E-002  0.76875000000000004        0.0000000000000000     
  0.10312499999999999       0.77187499999999998        0.0000000000000000     
  0.10625000000000000       0.79374999999999996        0.0000000000000000     
   8.4375000000000006E-002  0.79062500000000002        0.0000000000000000     
  0.15625000000000000       0.81250000000000000        0.0000000000000000     
  0.18750000000000000       0.81250000000000000        0.0000000000000000     
  0.18750000000000000       0.84375000000000000        0.0000000000000000     
  0.14374999999999999       0.83125000000000004        0.0000000000000000     
  0.16562499999999999       0.83437499999999998        0.0000000000000000     
  0.16875000000000001       0.85624999999999996        0.0000000000000000     
  0.14687500000000001       0.85312500000000002        0.0000000000000000     
  0.21875000000000000       0.81250000000000000        0.0000000000000000     
  0.25000000000000000       0.81250000000000000        0.0000000000000000     
  0.25000000000000000       0.84375000000000000        0.0000000000000000     
  0.20624999999999999       0.83125000000000004        0.0000000000000000     
  0.22812499999999999       0.83437499999999998        0.0000000000000000     
  0.23125000000000001       0.85624999999999996        0.0000000000000000     
  0.20937500000000001       0.85312500000000002        0.0000000000000000     
  0.15625000000000000       0.75000000000000000        0.0000000000000000     
  0.18750000000000000       0.75000000000000000        0.0000000000000000     
  0.18750000000000000       0.78125000000000000        0.0000000000000000     
  0.14374999999999999       0.76875000000000004        0.0000000000000000     
  0.16562499999999999       0.77187499999999998        0.0000000000000000     
  0.16875000000000001       0.79374999999999996        0.0000000000000000     
  0.14687500000000001       0.79062500000000002        0.0000000000000000     
  0.21875000000000000       0.75000000000000000        0.0000000000000000     
  0.25000000000000000       0.75000000000000000        0.0000000000000000     
  0.25000000000000000       0.78125000000000000        0.0000000000000000     
  0.20624999999999999       0.76875000000000004        0.0000000000000000     
  0.22812499999999999       0.77187499999999998        0.0000000000000000     
  0.23125000000000001       0.79374999999999996        0.0000000000000000     
  0.20937500000000001       0.79062500000000002        0.0000000000000000     
  0.28125000000000000       0.93750000000000000        0.0000000000000000     
  0.31250000000000000       0.93750000000000000        0.0000000000000000     
  0.31250000000000000       0.96875000000000000        0.0000000000000000     
  0.26874999999999999       0.95625000000000004        0.0000000000000000     
  0.29062500000000002       0.95937499999999998        0.0000000000000000     
  0.29375000000000001       0.98124999999999996        0.0000000000000000     
  0.27187499999999998       0.97812500000000002        0.0000000000000000     
  0.34375000000000000       0.93750000000000000        0.0000000000000000     
  0.37500000000000000       0.93750000000000000        0.0000000000000000     
  0.37500000000000000       0.96875000000000000        0.0000000000000000     
  0.33124999999999999       0.95625000000000004        0.0000000000000000     
  0.35312500000000002       0.95937499999999998        0.0000000000000000     
  0.35625000000000001       0.98124999999999996        0.0000000000000000     
[...]
 CELL_DATA        3584
 SCALARS Endothelial_cells float
 LOOKUP_TABLE default
    0.99999418883422930282E+00
    0.99999605869923091639E+00
    0.99999713443250815015E+00
    0.99999723690012654043E+00
    0.99999609608533668315E+00
    0.99999408991813509839E+00
    0.99999581422918160101E+00
    0.99999514765373687109E+00
    0.99999622316694425361E+00
    0.99999651930131061572E+00
    0.99999542676336250491E+00
    0.99999589663603105638E+00
    0.99999490351789743769E+00
    0.99999486791680514131E+00
    0.99999806317184336546E+00
    0.99999852996503102442E+00
    0.99999803445614487973E+00
    0.99999774673708219375E+00
    0.99999660566597048383E+00
    0.99999407545884144710E+00
    0.99999606135171292820E+00
    0.99999548045664676810E+00
    0.99999580008129906883E+00
    0.99999451598317357082E+00
    0.99999677252704688435E+00
    0.99999734971757503477E+00
    0.99999660319866279234E+00
    0.99999583291801930063E+00
    0.99999444876708676322E+00
    0.99999659983247035644E+00
    0.99999760197617859614E+00
    0.99999827925917972316E+00
    0.99999865989347624939E+00
    0.99999829119778982367E+00
    0.99999754489078307440E+00
    0.99999663930373294818E+00
    0.99999410606519023581E+00
    0.99999584052179768534E+00
    0.99999562973685673928E+00
    0.99999617795739126347E+00
    0.99999581604670917390E+00
    0.99999660315624760987E+00
    0.99999841676280298852E+00
    0.99999879926914347905E+00
    0.99999811678854655383E+00
    0.99999839693931558138E+00
    0.99999884132627980815E+00
    0.99999826570797334391E+00
    0.99999834771441631354E+00
    0.99999874950540812435E+00
    0.99999816256738771614E+00
    0.99999868437671735055E+00
    0.99999906780516034654E+00
    0.99999834063788717309E+00
    0.99999806643409228091E+00
    0.99999804332817432417E+00
    0.99999822463512999526E+00
    0.99999864899878221358E+00
    0.99999796709902089020E+00
    0.99999777475208828648E+00
    0.99999681746058799447E+00
    0.99999414629012528533E+00
    0.99999618481306262741E+00
    0.99999574133132873577E+00
    0.99999589427731694347E+00
    0.99999446860569130013E+00
    0.99999706093311369060E+00
    0.99999769536102711687E+00
    0.99999708000481224435E+00
    0.99999640282752289000E+00
    0.99999783960730048715E+00
    0.99999816713380518252E+00
    0.99999714540900364046E+00
    0.99999719213099380610E+00
    0.99999657258442553598E+00
    0.99999395804962654122E+00
    0.99999607339880269841E+00
    0.99999564968816145871E+00
    0.99999586795883488310E+00
    0.99999447462238910678E+00
    0.99999695381352571300E+00
    0.99999763434861299594E+00
    0.99999657468763225587E+00
    0.99999601328813014778E+00
    0.99999769976068975108E+00
    0.99999805233224026146E+00
    0.99999605550135350907E+00
    0.99999653277468725232E+00
    0.99999815745090303576E+00
    0.99999775350861630496E+00
    0.99999817022523662668E+00
    0.99999876912055596367E+00
    0.99999821373538244629E+00
    0.99999849723033973348E+00
    0.99999888740414233368E+00
    0.99999819606412421180E+00
    0.99999781624789452206E+00
    0.99999781879316673727E+00
    0.99998932995108746891E+00
    0.99998923110606396936E+00
    0.99997740394357703675E+00
    0.99998113639821828436E+00
    0.99999155103276382572E+00
    0.99999368669245813912E+00
    0.99999655312668123130E+00
    0.99999719566217060152E+00
    0.99999755608966756082E+00
    0.99999771449798402490E+00
    0.99999698218985888509E+00
    0.99999524904763770206E+00
    0.99999395592784678932E+00
    0.99999432116336572918E+00
    0.99999445570227019076E+00
    0.99999660296143622062E+00
    0.99999752228862859305E+00
    0.99999820016197793482E+00
    0.99999857885803700164E+00
    0.99999822978387653549E+00
    0.99999770558419454058E+00
    0.99999676373757495629E+00
    0.99999428482262897599E+00
    0.99999596783730515526E+00
    0.99999570178819585653E+00
    0.99999621572357111354E+00
    0.99999587172935122670E+00
    0.99999658562504445403E+00
    0.99999792300069056949E+00
    0.99999816210259140359E+00
    0.99999619780212101183E+00
    0.99999625041002249137E+00
    0.99999803355144356587E+00
    0.99999750107808138555E+00
    0.99999813672172033208E+00
    0.99999880291629594797E+00
    0.99999828648542787857E+00
    0.99999855222577205272E+00
    0.99999889581273770922E+00
    0.99999814932759611974E+00
    0.99999783471864178708E+00
    0.99999783126847274772E+00
    0.99999437273328117826E+00
    0.99999641550933981993E+00
    0.99999683521296933719E+00
    0.99999732486001813303E+00
    0.99999806005130364994E+00
    0.99999770243341423726E+00
    0.99999756015956398070E+00
    0.99999669146783132234E+00
    0.99999426891777720705E+00
    0.99999593992886492977E+00
    0.99999567844621550794E+00
    0.99999615088127202789E+00
    0.99999572149017335043E+00
    0.99999627741430419103E+00
    0.99999392715188473169E+00
    0.99999156160974478347E+00
    0.99998076305862104718E+00
    0.99997755943055444128E+00
    0.99998917169336376531E+00
    0.99998914428526120002E+00
    0.99999512375023758004E+00
    0.99999684170665137373E+00
    0.99999759819940803318E+00
    0.99999784483019704684E+00
    0.99999731366587141235E+00
    0.99999660107795795838E+00
    0.99999431216754997021E+00
    0.99999392860729452437E+00
    0.99998787201199645924E+00
    0.99998479496193981575E+00
    0.99996627238677082694E+00
    0.99996654067179235881E+00
    0.99998474891343802629E+00
    0.99998760662622354634E+00
    0.99999452091327767356E+00
    0.99999577522788307693E+00
    0.99999710999641633347E+00
    0.99999727997456588913E+00
    0.99999590393631010432E+00
    0.99999461407581913264E+00
    0.99999135961339957746E+00
    0.99999135025317331671E+00
    0.99988088059979229882E+00
    0.99986105783590917273E+00
    0.99971363100724530693E+00
    0.99973922527240710600E+00
    0.99987936222184781165E+00
    0.99991639995577286104E+00
    0.99996435021323892833E+00
    0.99996558147486735990E+00
    0.99998441604681054251E+00
    0.99998341158718162536E+00
    0.99996054672089784709E+00
    0.99995022154809598547E+00
    0.99992871880830935805E+00
    0.99993197158045499240E+00
    0.99991669038577979389E+00
    0.99987937983155394939E+00
    0.99973883117738659987E+00
    0.99971377530436023040E+00
    0.99986095928521012688E+00
    0.99988062882071049309E+00
    0.99995009104638099551E+00
    0.99996040960014942467E+00
    0.99998338185639679132E+00
    0.99998470697624530779E+00
    0.99996572405958106255E+00
    0.99996443204569063212E+00
    0.99993194701374821243E+00
    0.99992866604426200450E+00
    0.99901773211505662253E+00
    0.99871506736737347687E+00
    0.99733490566033644598E+00
    0.99733517191120035772E+00
    0.99871498838227679151E+00
    0.99901740480102019237E+00
    0.99956802795518662208E+00
    0.99961016537068847487E+00
    0.99983163168114752573E+00
    0.99983178185673071692E+00
    0.99961030999961253407E+00
    0.99956812200250966249E+00
    0.99929332102684786943E+00
    0.99929330221288514835E+00
    0.99999537427396723022E+00
    0.99999606025534470977E+00
    0.99999288411499231977E+00
    0.99999424825667504457E+00
    0.99999528157429573572E+00
    0.99999350332863856661E+00
    0.99999595407131691704E+00
    0.99999532418149217339E+00
    0.99999570531301140708E+00
    0.99999423423723776683E+00
    0.99999654884941513444E+00
    0.99999676188363062490E+00
    0.99999559145569083540E+00
    0.99999507968312995043E+00
    0.99998631922503833369E+00
    0.99998927175553575797E+00
    0.99998087248665978866E+00
    0.99998647540898999431E+00
    0.99999183103129796191E+00
    0.99999192573390582872E+00
    0.99999503283289870037E+00
    0.99999417695417158747E+00
    0.99999507649585328561E+00
    0.99999346724569360134E+00
    0.99999447709247391014E+00
    0.99999306110375763001E+00
    0.99999255754511140459E+00
    0.99999261375199777202E+00
    0.99993840372150888385E+00
    0.99994236603702923993E+00
    0.99988771724251557238E+00
    0.99991322820987726949E+00
    0.99996111107127760853E+00
    0.99997669641120590089E+00
    0.99998918079063792153E+00
    0.99998822557653477272E+00
    0.99999346395027355339E+00
    0.99999247373801225525E+00
    0.99998310549968383310E+00
    0.99997414543115092922E+00
    0.99997198984079693762E+00
    0.99997531024287233947E+00
    0.99974818530108200410E+00
    0.99978986755467913472E+00
    0.99962799647604727582E+00
    0.99973310509107016220E+00
    0.99987710497242687779E+00
    0.99993364362838499382E+00
    0.99996872857980423355E+00
    0.99995990654195732183E+00
    0.99997887477137059609E+00
    0.99997219959792871258E+00
    0.99993150357434579245E+00
    0.99988918457482167668E+00
    0.99989960628225416084E+00
    0.99991571523052524828E+00
    0.99996686823972491531E+00
    0.99997662409986909360E+00
    0.99996157467480739633E+00
    0.99997511065522548535E+00
    0.99998652732963844159E+00
    0.99998953107328469869E+00
    0.99999359940778342892E+00
    0.99999229480928053526E+00
    0.99999392109751539248E+00
    0.99999186693432173811E+00
    0.99998988029513113940E+00
    0.99998424182588008247E+00
    0.99998684347717048393E+00
    0.99998826506870297504E+00
    0.99994473461355781740E+00
    0.99996486757720071115E+00
    0.99994774024867971729E+00
    0.99996832849145500521E+00
    0.99998300107898319133E+00
    0.99998825298513638327E+00
    0.99999246861133639364E+00
    0.99999040909020853185E+00
    0.99999230108404979500E+00
    0.99998952382722772203E+00
    0.99998447408409607551E+00
    0.99997287989398253583E+00
    0.99998139725737544836E+00
    0.99998444583999634983E+00
    0.99932786868774881039E+00
    0.99949980832070828285E+00
    0.99919882670051130003E+00
    0.99946378509368993814E+00
    0.99974506620034431226E+00
    0.99987227230962782976E+00
    0.99993613416949300721E+00
    0.99990763927250003729E+00
    0.99994766039660998302E+00
    0.99992495862113683902E+00
    0.99981734652997833468E+00
    0.99968473626855969272E+00
    0.99975988371668822463E+00
    0.99980676805475698909E+00
    0.99883682754089753164E+00
    0.99922433072457028658E+00
    0.99888419957610508071E+00
    0.99930058814998778960E+00
    0.99965564666424611140E+00
    0.99983842875076223145E+00
    0.99991305005565689346E+00
    0.99985997661255765490E+00
    0.99991200711270644685E+00
    0.99986453697260435636E+00
    0.99968152832183643230E+00
    0.99941457821999146738E+00
    0.99962390056526839732E+00
    0.99970923951574874877E+00
    0.99917096838138053094E+00
    0.99915364718340671235E+00
    0.99839412561031215532E+00
    0.99866938491177215109E+00
    0.99936808409699795508E+00
    0.99960250516143922539E+00
    0.99981996647407156420E+00
    0.99980127141588825967E+00
    0.99990703564121463653E+00
    0.99989107195592286104E+00
    0.99973417718520163344E+00
    0.99963760535181711564E+00
    0.99956964932958847214E+00
    0.99960900265753238614E+00
    0.99632698463654179033E+00
    0.99672936754290752948E+00
    0.99437273476443077680E+00
    0.99569604382510845664E+00
    0.99788853557846846076E+00
    0.99877306174825242202E+00
    0.99940362264347093468E+00
    0.99926093699452289698E+00
    0.99961789929948641209E+00
    0.99951457548785482832E+00
    0.99885061736393698784E+00
    0.99829463698440101815E+00
    0.99832841795202109658E+00
    0.99854921557014297839E+00
    0.99074465980481540850E+00
    0.98970082572072071159E+00
    0.97863635363410983459E+00
    0.98279847470779158058E+00
    0.99198172594464262275E+00
    0.99473135218659525236E+00
    0.99754803438187222842E+00
    0.99745776788374251876E+00
    0.99880781693133624533E+00
    0.99868994373350861160E+00
    0.99693686069750209189E+00
    0.99611076318491731385E+00
    0.99482819399845878738E+00
    0.99520599392559128127E+00
    0.94847207736703942338E+00
    0.95723581121732670418E+00
    0.92830430438240119084E+00
    0.94618008323443036911E+00
    0.97273495155945810531E+00
    0.98319703768960320378E+00
    0.99143875288342497853E+00
    0.98990209362838099683E+00
    0.99465715656279662937E+00
    0.99348943802397859937E+00
    0.98498641822243537813E+00
    0.97739468123306227909E+00
    0.97816984328666367610E+00
    0.98100941192390711532E+00
    0.98984792958308087663E+00
    0.99197270868045961389E+00
    0.98757419212578967382E+00
    0.99112672572337756627E+00
    0.99548555659270321350E+00
    0.99755508026290995449E+00
    0.99871879691011955504E+00
    0.99822844069228000574E+00
    0.99897661404691662224E+00
    0.99860046680492842164E+00
    0.99681931704186588217E+00
    0.99491895531380936113E+00
    0.99584664377168252702E+00
    0.99654370118046053939E+00
    0.98215741582719817693E+00
    0.98737244392856304831E+00
    0.98251989305101850025E+00
    0.98831130156863167269E+00
    0.99381737329764152644E+00
    0.99686540033515358417E+00
    0.99822137425046053583E+00
    0.99726214444345173682E+00
    0.99822355374763038771E+00
    0.99739565687631182023E+00
    0.99433881858280748212E+00
    0.99032681507710773605E+00
    0.99337378099527684494E+00
    0.99470532700416580685E+00
    0.88604812540126842713E+00
    0.90855520519330612572E+00
    0.86849962309459904919E+00
    0.89916863814939829158E+00
    0.94396045858233257331E+00
    0.96652046866953655879E+00
    0.98128370579242496508E+00
    0.97561725686017586323E+00
    0.98526845016540920419E+00
    0.98084651513807785683E+00
    0.95980780884232974604E+00
    0.93838887610085996993E+00
    0.94838992698246482593E+00
    0.95587689218180693640E+00
    0.82787504784253040935E+00
    0.86732381278518666523E+00
    0.82936675230220524568E+00
    0.87233831980066933731E+00
    0.92464373872476501859E+00
    0.95713426587255057143E+00
    0.97385239819779856330E+00
    0.96231955196716656431E+00
    0.97415902119480168864E+00
    0.96434322339963329807E+00
    0.93103072544499099195E+00
    0.89215828932938223694E+00
    0.92037454333554635788E+00
    0.93366872291091396185E+00
    0.99999392219931648729E+00
    0.99999516247433950511E+00
    0.99999382864394092962E+00
    0.99999301538774598708E+00
    0.99999592641868328968E+00
    0.99999521605552799119E+00
    0.99999662350980311754E+00
    0.99999626177777212188E+00
    0.99999409038399333927E+00
    0.99999578958829193898E+00
    0.99999540842971645915E+00
    0.99999602255080310975E+00
    0.99999488595291674553E+00
    0.99999534893555630521E+00
    0.99997697629146375942E+00
    0.99996112977951856493E+00
    0.99991284325492946206E+00
    0.99988786280188601818E+00
    0.99994231906146402444E+00
    0.99993824310239531883E+00
    0.99997399173891265978E+00
    0.99998296886547843876E+00
    0.99999244072785209436E+00
    0.99999378566507923782E+00
    0.99998835644232031417E+00
    0.99998923023566677060E+00
    0.99997529810688823293E+00
    0.99997195665304883239E+00
    0.99999230766624702671E+00
    0.99999173056673218429E+00
    0.99998603320875356637E+00
    0.99998099249218208584E+00
    0.99998915886325090430E+00
    0.99998616671721807236E+00
    0.99999286694933320341E+00
    0.99999418316389909744E+00
    0.99999329413520554599E+00
    0.99999513927082051001E+00
    0.99999433139434656947E+00
    0.99999504926919224879E+00
    0.99999248104807558768E+00
    0.99999236088971710235E+00
    0.99993394374917010659E+00
    0.99987713041068393416E+00
    0.99973271632294014033E+00
    0.99962813946746931215E+00
    0.99978982292172224877E+00
    0.99974803380074028780E+00
    0.99988902307897908894E+00
    0.99993137784564922743E+00
    0.99997220759783322919E+00
    0.99997921822528468283E+00
    0.99996004800457682915E+00
    0.99996877997254107751E+00
    0.99991570684186825702E+00
    0.99989957583584154754E+00
    0.99960281022269303897E+00
    0.99936810492193617339E+00
    0.99866898390150282694E+00
    0.99839425081932675621E+00
    0.99915355211140266523E+00
    0.99917077943225762748E+00
    0.99963742589921411597E+00
    0.99973403851101683149E+00
    0.99989107800301757489E+00
    0.99990735872184977051E+00
    0.99980140006572515432E+00
    0.99982002787948232037E+00
    0.99960897821158423149E+00
    0.99956959517574062168E+00
    0.99473167228925463146E+00
    0.99198175662957999155E+00
    0.98279808566922244317E+00
    0.97863648437846428862E+00
    0.98970070954507205485E+00
    0.99074439353615606496E+00
    0.99611062687077633893E+00
    0.99693674234307438908E+00
    0.99868997846540574770E+00
    0.99880814105198634234E+00
    0.99745790044888427150E+00
    0.99754809073584327361E+00
    0.99520597286532563874E+00
    0.99482814021055532283E+00
    0.99877337444548075496E+00
    0.99788856176661933084E+00
    0.99569564511162056419E+00
    0.99437286779637679146E+00
    0.99672931448654811248E+00
    0.99632683501258068048E+00
    0.99829446198478322128E+00
    0.99885049012846638394E+00
    0.99951460135574454746E+00
    0.99961823864756516045E+00
    0.99926107530388064148E+00
    0.99940368554243086407E+00
    0.99854920136471114755E+00
    0.99832838002383095244E+00
    0.98319735946599273735E+00
    0.97273499500957716357E+00
    0.94617971979111514802E+00
    0.92830444649758636633E+00
    0.95723577305128260129E+00
    0.94847195032068354337E+00
    0.97739451509993913181E+00
    0.98498630672974551992E+00
    0.99348948463385977625E+00
    0.99465750576345568490E+00
    0.98990224185282538194E+00
    0.99143881588829152474E+00
    0.98100941090120497012E+00
    0.97816981769847011208E+00
    0.99998992490431493074E+00
    0.99998643957814670191E+00
    0.99997466061199835607E+00
    0.99996169108528198954E+00
    0.99997652107335299743E+00
    0.99996671689952987272E+00
    0.99998402315097312254E+00
    0.99998958344550648025E+00
    0.99999184248410299958E+00
    0.99999415892141696460E+00
    0.99999243421483752225E+00
    0.99999356389624582953E+00
    0.99998816239856591626E+00
    0.99998667123764395370E+00
    0.99987257431851739309E+00
    0.99974509216429974234E+00
    0.99946339389483274118E+00
    0.99919896792377516093E+00
    0.99949976365277237722E+00
    0.99932772037488470929E+00
    0.99968457215377581893E+00
    0.99981722794571137314E+00
    0.99992498769983839679E+00
    0.99994801481569628443E+00
    0.99990778606343411195E+00
    0.99993618512465620718E+00
    0.99980676141170132798E+00
    0.99975985498147446062E+00
    0.99998847030784820955E+00
    0.99998290186406224578E+00
    0.99996788799012914506E+00
    0.99994783538322085104E+00
    0.99996476460629879490E+00
    0.99994457745315123987E+00
    0.99997265189916528794E+00
    0.99998419090517465246E+00
    0.99998956425079943422E+00
    0.99999263124779513845E+00
    0.99999054385898011876E+00
    0.99999237318461198232E+00
    0.99998435066653412751E+00
    0.99998123535852456722E+00
    0.99983834202063193164E+00
    0.99965557214492628546E+00
    0.99930016424963852284E+00
    0.99888428278158281071E+00
    0.99922427054009288483E+00
    0.99883667560848088396E+00
    0.99941441122965479771E+00
    0.99968140679677974791E+00
    0.99986456637401877057E+00
    0.99991235607379369554E+00
    0.99986010034770689270E+00
    0.99991301587095560155E+00
    0.99970920856541067856E+00
    0.99962386004780634519E+00
    0.99755539448700136784E+00
    0.99548558388472996317E+00
    0.99112632633489694545E+00
    0.98757431900662162594E+00
    0.99197265469097173352E+00
    0.98984778078487334341E+00
    0.99491878012903500750E+00
    0.99681919334377055986E+00
    0.99860050163913816057E+00
    0.99897695974489519877E+00
    0.99822858251072610347E+00
    0.99871885996271425601E+00
    0.99654368870534904001E+00
    0.99584660706014094256E+00
    0.96652077886003939788E+00
    0.94396050016719434961E+00
    0.89916828724465991396E+00
    0.86849971036635331689E+00
    0.90855515167876343963E+00
    0.88604800891840829191E+00
    0.93838871833834769376E+00
    0.95980770158603001541E+00
    0.98084656675279691118E+00
    0.98526879561140578989E+00
    0.97561740146976461130E+00
    0.98128376392113825233E+00