# vtk DataFile Version 3.0
LAPLACIEN  2D
ASCII
DATASET UNSTRUCTURED_GRID
 POINTS        1857  float
   3.1250000000000000E-002  0.93750000000000000        0.0000000000000000     
   6.2500000000000000E-002  0.93750000000000000        0.0000000000000000     
   6.2500000000000000E-002  0.96875000000000000        0.0000000000000000     
   1.8749999999999999E-002  0.95625000000000004        0.0000000000000000     
   4.0625000000000001E-002  0.95937499999999998        0.0000000000000000     
   4.3749999999999997E-002  0.98124999999999996        0.0000000000000000     
   2.1874999999999999E-002  0.97812500000000002        0.0000000000000000     
   9.3750000000000000E-002  0.93750000000000000        0.0000000000000000     
  0.12500000000000000       0.93750000000000000        0.0000000000000000     
  0.12500000000000000       0.96875000000000000        0.0000000000000000     
   8.1250000000000003E-002  0.95625000000000004        0.0000000000000000     
  0.10312499999999999       0.95937499999999998        0.0000000000000000     
  0.10625000000000000       0.98124999999999996        0.0000000000000000     
   8.4375000000000006E-002  0.97812500000000002        0.0000000000000000     
   3.1250000000000000E-002  0.87500000000000000        0.0000000000000000     
   6.2500000000000000E-002  0.87500000000000000        0.0000000000000000     
   6.2500000000000000E-002  0.90625000000000000        0.0000000000000000     
   1.8749999999999999E-002  0.89375000000000004        0.0000000000000000     
   4.0625000000000001E-002  0.89687499999999998        0.0000000000000000     
   4.3749999999999997E-002  0.91874999999999996        0.0000000000000000     
   2.1874999999999999E-002  0.91562500000000002        0.0000000000000000     
   9.3750000000000000E-002  0.87500000000000000        0.0000000000000000     
  0.12500000000000000       0.87500000000000000        0.0000000000000000     
  0.12500000000000000       0.90625000000000000        0.0000000000000000     
   8.1250000000000003E-002  0.89375000000000004        0.0000000000000000     
  0.10312499999999999       0.89687499999999998        0.0000000000000000     
  0.10625000000000000       0.91874999999999996        0.0000000000000000     
   8.4375000000000006E-002  0.91562500000000002        0.0000000000000000     
  0.15625000000000000       0.93750000000000000        0.0000000000000000     
  0.18750000000000000       0.93750000000000000        0.0000000000000000     
  0.18750000000000000       0.96875000000000000        0.0000000000000000     
  0.14374999999999999       0.95625000000000004        0.0000000000000000     
  0.16562499999999999       0.95937499999999998        0.0000000000000000     
  0.16875000000000001       0.98124999999999996        0.0000000000000000     
  0.14687500000000001       0.97812500000000002        0.0000000000000000     
  0.21875000000000000       0.93750000000000000        0.0000000000000000     
  0.25000000000000000       0.93750000000000000        0.0000000000000000     
  0.25000000000000000       0.96875000000000000        0.0000000000000000     
  0.20624999999999999       0.95625000000000004        0.0000000000000000     
  0.22812499999999999       0.95937499999999998        0.0000000000000000     
  0.23125000000000001       0.98124999999999996        0.0000000000000000     
  0.20937500000000001       0.97812500000000002        0.0000000000000000     
  0.15625000000000000       0.87500000000000000        0.0000000000000000     
  0.18750000000000000       0.87500000000000000        0.0000000000000000     
  0.18750000000000000       0.90625000000000000        0.0000000000000000     
  0.14374999999999999       0.89375000000000004        0.0000000000000000     
  0.16562499999999999       0.89687499999999998        0.0000000000000000     
  0.16875000000000001       0.91874999999999996        0.0000000000000000     
  0.14687500000000001       0.91562500000000002        0.0000000000000000     
  0.21875000000000000       0.87500000000000000        0.0000000000000000     
  0.25000000000000000       0.87500000000000000        0.0000000000000000     
  0.25000000000000000       0.90625000000000000        0.0000000000000000     
  0.20624999999999999       0.89375000000000004        0.0000000000000000     
  0.22812499999999999       0.89687499999999998        0.0000000000000000     
  0.23125000000000001       0.91874999999999996        0.0000000000000000     
  0.20937500000000001       0.91562500000000002        0.0000000000000000     
   3.1250000000000000E-002  0.81250000000000000        0.0000000000000000     
   6.2500000000000000E-002  0.81250000000000000        0.0000000000000000     
   6.2500000000000000E-002  0.84375000000000000        0.0000000000000000     
   1.8749999999999999E-002  0.83125000000000004        0.0000000000000000     
   4.0625000000000001E-002  0.83437499999999998        0.0000000000000000     
   4.3749999999999997E-002  0.85624999999999996        0.0000000000000000     
   2.1874999999999999E-002  0.85312500000000002        0.0000000000000000     
   9.3750000000000000E-002  0.81250000000000000        0.0000000000000000     
  0.12500000000000000       0.81250000000000000        0.0000000000000000     
  0.12500000000000000       0.84375000000000000        0.0000000000000000     
   8.1250000000000003E-002  0.83125000000000004        0.0000000000000000     
  0.10312499999999999       0.83437499999999998        0.0000000000000000     
  0.10625000000000000       0.85624999999999996        0.0000000000000000     
   8.4375000000000006E-002  0.85312500000000002        0.0000000000000000     
   3.1250000000000000E-002  0.75000000000000000        0.0000000000000000     
   6.2500000000000000E-002  0.75000000000000000        0.0000000000000000     
   6.2500000000000000E-002  0.78125000000000000        0.0000000000000000     
   1.8749999999999999E-002  0.76875000000000004        0.0000000000000000     
   4.0625000000000001E-002  0.77187499999999998        0.0000000000000000     
   4.3749999999999997E-002  0.79374999999999996        0.0000000000000000     
   2.1874999999999999E-002  0.79062500000000002        0.0000000000000000     
   9.3750000000000000E-002  0.75000000000000000        0.0000000000000000     
  0.12500000000000000       0.75000000000000000        0.0000000000000000     
  0.12500000000000000       0.78125000000000000        0.0000000000000000     
   8.1250000000000003E-002  0.76875000000000004        0.0000000000000000     
  0.10312499999999999       0.77187499999999998        0.0000000000000000     
  0.10625000000000000       0.79374999999999996        0.0000000000000000     
   8.4375000000000006E-002  0.79062500000000002        0.0000000000000000     
  0.15625000000000000       0.81250000000000000        0.0000000000000000     
  0.18750000000000000       0.81250000000000000        0.0000000000000000     
  0.18750000000000000       0.84375000000000000        0.0000000000000000     
  0.14374999999999999       0.83125000000000004        0.0000000000000000     
  0.16562499999999999       0.83437499999999998        0.0000000000000000     
  0.16875000000000001       0.85624999999999996        0.0000000000000000     
  0.14687500000000001       0.85312500000000002        0.0000000000000000     
  0.21875000000000000       0.81250000000000000        0.0000000000000000     
  0.25000000000000000       0.81250000000000000        0.0000000000000000     
  0.25000000000000000       0.84375000000000000        0.0000000000000000     
  0.20624999999999999       0.83125000000000004        0.0000000000000000     
  0.22812499999999999       0.83437499999999998        0.0000000000000000     
  0.23125000000000001       0.85624999999999996        0.0000000000000000     
  0.20937500000000001       0.85312500000000002        0.0000000000000000     
  0.15625000000000000       0.75000000000000000        0.0000000000000000     
  0.18750000000000000       0.75000000000000000        0.0000000000000000     
  0.18750000000000000       0.78125000000000000        0.0000000000000000     
  0.14374999999999999       0.76875000000000004        0.0000000000000000     
  0.16562499999999999       0.77187499999999998        0.0000000000000000     
  0.16875000000000001       0.79374999999999996        0.0000000000000000     
  0.14687500000000001       0.79062500000000002        0.0000000000000000     
  0.21875000000000000       0.75000000000000000        0.0000000000000000     
  0.25000000000000000       0.75000000000000000        0.0000000000000000     
  0.25000000000000000       0.78125000000000000        0.0000000000000000     
  0.20624999999999999       0.76875000000000004        0.0000000000000000     
  0.22812499999999999       0.77187499999999998        0.0000000000000000     
  0.23125000000000001       0.79374999999999996        0.0000000000000000     
  0.20937500000000001       0.79062500000000002        0.0000000000000000     
  0.28125000000000000       0.93750000000000000        0.0000000000000000     
  0.31250000000000000       0.93750000000000000        0.0000000000000000     
  0.31250000000000000       0.96875000000000000        0.0000000000000000     
  0.26874999999999999       0.95625000000000004        0.0000000000000000     
  0.29062500000000002       0.95937499999999998        0.0000000000000000     
  0.29375000000000001       0.98124999999999996        0.0000000000000000     
  0.27187499999999998       0.97812500000000002        0.0000000000000000     
  0.34375000000000000       0.93750000000000000        0.0000000000000000     
  0.37500000000000000       0.93750000000000000        0.0000000000000000     
  0.37500000000000000       0.96875000000000000        0.0000000000000000     
  0.33124999999999999       0.95625000000000004        0.0000000000000000     
  0.35312500000000002       0.95937499999999998        0.0000000000000000     
  0.35625000000000001       0.98124999999999996        0.0000000000000000     
[...]
 CELL_DATA        3584
 SCALARS Endothelial_cells float
 LOOKUP_TABLE default
    0.99999551848976242496E+00
    0.99999730511373496888E+00
    0.99999814054557467635E+00
    0.99999825875950709708E+00
    0.99999731712324924082E+00
    0.99999531630442017871E+00
    0.99999713788922506286E+00
    0.99999643452170039470E+00
    0.99999742923851864251E+00
    0.99999773164550298521E+00
    0.99999671820139113265E+00
    0.99999724902912134894E+00
    0.99999618903738496378E+00
    0.99999615091671223421E+00
    0.99999878718784396270E+00
    0.99999935154323138509E+00
    0.99999877904142497886E+00
    0.99999860590732114751E+00
    0.99999770144092525737E+00
    0.99999532569828053497E+00
    0.99999738135332549849E+00
    0.99999670740656998458E+00
    0.99999709260583447001E+00
    0.99999573841440936306E+00
    0.99999785129642804193E+00
    0.99999829706563569953E+00
    0.99999759578469815668E+00
    0.99999688436944356162E+00
    0.99999570467539922181E+00
    0.99999768143770495499E+00
    0.99999844431569395731E+00
    0.99999900773200178783E+00
    0.99999945593108463537E+00
    0.99999895427451190866E+00
    0.99999847969883171039E+00
    0.99999774105799033030E+00
    0.99999540699604783089E+00
    0.99999719703069689380E+00
    0.99999686369183582446E+00
    0.99999747361182300676E+00
    0.99999685944835570162E+00
    0.99999759308111024758E+00
    0.99999904416325613443E+00
    0.99999943176689398694E+00
    0.99999888535190306627E+00
    0.99999912889836872765E+00
    0.99999946916353565918E+00
    0.99999890801380109107E+00
    0.99999904163036112958E+00
    0.99999939104819202118E+00
    0.99999878392319618836E+00
    0.99999930141705661857E+00
    0.99999966176781751592E+00
    0.99999898191652170087E+00
    0.99999863577939807069E+00
    0.99999863345282902216E+00
    0.99999891963474274448E+00
    0.99999956089781838475E+00
    0.99999885190903703425E+00
    0.99999866814844473595E+00
    0.99999788181660331787E+00
    0.99999538476468174952E+00
    0.99999746328082417257E+00
    0.99999691185746608646E+00
    0.99999719217182247988E+00
    0.99999572329776886814E+00
    0.99999808816209145856E+00
    0.99999853433402063896E+00
    0.99999809795078797858E+00
    0.99999737637977892390E+00
    0.99999895988029530169E+00
    0.99999956832539560470E+00
    0.99999882762536240755E+00
    0.99999865437298285364E+00
    0.99999788076196083342E+00
    0.99999538484700634111E+00
    0.99999746665499089637E+00
    0.99999691941345159041E+00
    0.99999720803641833911E+00
    0.99999575303469490084E+00
    0.99999810762855489976E+00
    0.99999857266748304330E+00
    0.99999810610026307334E+00
    0.99999738203082289001E+00
    0.99999907777162588829E+00
    0.99999946047194987475E+00
    0.99999885849671077409E+00
    0.99999912030316617795E+00
    0.99999949237564667026E+00
    0.99999895830350993275E+00
    0.99999909725903191049E+00
    0.99999945143508517376E+00
    0.99999890540420655061E+00
    0.99999919741047471611E+00
    0.99999955545411789437E+00
    0.99999905905383768001E+00
    0.99999866560315020525E+00
    0.99999867760912930503E+00
    0.99999882434120412888E+00
    0.99999929870139181443E+00
    0.99999814605606807127E+00
    0.99999862180856324834E+00
    0.99999938902258567186E+00
    0.99999883255659716141E+00
    0.99999905960127244420E+00
    0.99999943082915365711E+00
    0.99999895719357434487E+00
    0.99999925101405884309E+00
    0.99999951690991761843E+00
    0.99999900510717887325E+00
    0.99999856333937353625E+00
    0.99999858664055774060E+00
    0.99999572791109347936E+00
    0.99999771395508618710E+00
    0.99999847032275113179E+00
    0.99999904247906878929E+00
    0.99999951244620288726E+00
    0.99999901855240946880E+00
    0.99999856348698989983E+00
    0.99999782446762552901E+00
    0.99999553363849824628E+00
    0.99999728820264099927E+00
    0.99999692003409124119E+00
    0.99999750805758935712E+00
    0.99999691029364456973E+00
    0.99999765155373265824E+00
    0.99999905901434693600E+00
    0.99999945457696581830E+00
    0.99999885690014689299E+00
    0.99999912096384269145E+00
    0.99999950922553004773E+00
    0.99999894197011762742E+00
    0.99999903761464570273E+00
    0.99999947563957081176E+00
    0.99999893519132909692E+00
    0.99999931077043069383E+00
    0.99999958812249567508E+00
    0.99999900628294302596E+00
    0.99999869669425689445E+00
    0.99999871370436965723E+00
    0.99999572886168330843E+00
    0.99999772872747427765E+00
    0.99999845663384734351E+00
    0.99999902106981519712E+00
    0.99999952758675447750E+00
    0.99999902413365060472E+00
    0.99999858247048623028E+00
    0.99999785346479852510E+00
    0.99999555140363183270E+00
    0.99999730124804397935E+00
    0.99999694271174932592E+00
    0.99999751248716828300E+00
    0.99999698561680905318E+00
    0.99999772790278707024E+00
    0.99999897402600212981E+00
    0.99999936852360116202E+00
    0.99999829540804285877E+00
    0.99999836668318453636E+00
    0.99999931539533271074E+00
    0.99999865883712479864E+00
    0.99999897766355994033E+00
    0.99999942490984350396E+00
    0.99999893513130722056E+00
    0.99999930797590974585E+00
    0.99999954473664287580E+00
    0.99999896102346186311E+00
    0.99999859279187974792E+00
    0.99999859615258879231E+00
    0.99999877740794562708E+00
    0.99999912689566827773E+00
    0.99999751200396347350E+00
    0.99999778531662941727E+00
    0.99999913535729556546E+00
    0.99999860756485225988E+00
    0.99999897108944046931E+00
    0.99999948910285108017E+00
    0.99999891608859670100E+00
    0.99999916265826438444E+00
    0.99999958092490359718E+00
    0.99999899504523503957E+00
    0.99999857647959122797E+00
    0.99999858599361679534E+00
    0.99999094468924931700E+00
    0.99998963013664321497E+00
    0.99997444205040231235E+00
    0.99997757646503282469E+00
    0.99999125466257265948E+00
    0.99999375457085393215E+00
    0.99999734094782433136E+00
    0.99999804398354985580E+00
    0.99999843416875877633E+00
    0.99999859881799291195E+00
    0.99999800824984397263E+00
    0.99999657904496397354E+00
    0.99999476790364594248E+00
    0.99999501184312900026E+00
    0.99999397895404773529E+00
    0.99999125576241743030E+00
    0.99997720776362841733E+00
    0.99997462408547610480E+00
    0.99998958485673050678E+00
    0.99999073763318002683E+00
    0.99999649368858190002E+00
    0.99999787503111303710E+00
    0.99999843719800329822E+00
    0.99999868483023490739E+00
    0.99999814594749769636E+00
    0.99999739596987380352E+00
    0.99999499258461810314E+00
    0.99999474141047894893E+00
    0.99988391410385268898E+00
    0.99983742860993451984E+00
    0.99960369367065293744E+00
    0.99960397091287211957E+00
    0.99983738102640173917E+00
    0.99988363891792186866E+00
    0.99995705294777681438E+00
    0.99996293766618671306E+00
    0.99998610264716425444E+00
    0.99998629012848527786E+00
    0.99996308097286723537E+00
    0.99995713543538544688E+00
    0.99992218820165512660E+00
    0.99992217688087037253E+00
    0.99999888037303563681E+00
    0.99999933482377645344E+00
    0.99999861697701475372E+00
    0.99999857706277195390E+00
    0.99999784632255817041E+00
    0.99999536860673154948E+00
    0.99999745936288841897E+00
    0.99999691246305855152E+00
    0.99999720586113804988E+00
    0.99999575111899208224E+00
    0.99999809118425131427E+00
    0.99999854871811033608E+00
    0.99999792355586236692E+00
    0.99999733755086472886E+00
    0.99999851034374309666E+00
    0.99999906906119051531E+00
    0.99999813338126408713E+00
    0.99999833691810435798E+00
    0.99999774761840787285E+00
    0.99999531602377389472E+00
    0.99999742655104373323E+00
    0.99999686980960489358E+00
    0.99999718428592887509E+00
    0.99999572792344459948E+00
    0.99999798478770385302E+00
    0.99999844302568319243E+00
    0.99999759043723934759E+00
    0.99999710553051202044E+00
    0.99999570457258568634E+00
    0.99999653339065242008E+00
    0.99999151773978600666E+00
    0.99999404449280993035E+00
    0.99999771186741082118E+00
    0.99999798961653862950E+00
    0.99999871085845803975E+00
    0.99999923702905413325E+00
    0.99999875216405464950E+00
    0.99999899570139694216E+00
    0.99999925028923608572E+00
    0.99999811212087630352E+00
    0.99999767292242458527E+00
    0.99999785364096072104E+00
    0.99997814890597402915E+00
    0.99998306161338990083E+00
    0.99996453623051795301E+00
    0.99997710209049439634E+00
    0.99999109270889796619E+00
    0.99999507492026118438E+00
    0.99999756697236863445E+00
    0.99999763393641982745E+00
    0.99999804070690412328E+00
    0.99999791061806742043E+00
    0.99999595816649322622E+00
    0.99999182040751510847E+00
    0.99999245242192558170E+00
    0.99999378175213937681E+00
    0.99999749609814803097E+00
    0.99999850503944220925E+00
    0.99999702169129822682E+00
    0.99999780476784760896E+00
    0.99999753882184949649E+00
    0.99999522988685485281E+00
    0.99999736569777553097E+00
    0.99999679273377262145E+00
    0.99999713210514540318E+00
    0.99999566407955098324E+00
    0.99999786704350979161E+00
    0.99999811132631222232E+00
    0.99999728733331760822E+00
    0.99999686447797897504E+00
    0.99999606231942717027E+00
    0.99999783107403361626E+00
    0.99999610134066674316E+00
    0.99999738806453553064E+00
    0.99999736860431909236E+00
    0.99999517777039859112E+00
    0.99999732182581102524E+00
    0.99999671483304064523E+00
    0.99999707276762783703E+00
    0.99999557849100839668E+00
    0.99999767009417472874E+00
    0.99999755869309503442E+00
    0.99999700931312174301E+00
    0.99999666527887465239E+00
    0.99992698992641193545E+00
    0.99995007691244208736E+00
    0.99990875045868021775E+00
    0.99994586879800884116E+00
    0.99997817866109894869E+00
    0.99999000605217192028E+00
    0.99999532234619259441E+00
    0.99999371228209088525E+00
    0.99999606201121682414E+00
    0.99999457083416543046E+00
    0.99998594570166066120E+00
    0.99997137237879663019E+00
    0.99997921440308290553E+00
    0.99998409301724078269E+00
    0.99985614571398662154E+00
    0.99991388841413009203E+00
    0.99986263969644617600E+00
    0.99992473003081083771E+00
    0.99996845530247935319E+00
    0.99998697938575709099E+00
    0.99999354545202756572E+00
    0.99998959497914974293E+00
    0.99999340244389878229E+00
    0.99998947463713760975E+00
    0.99997173565964614372E+00
    0.99993905386899162302E+00
    0.99996425119087795075E+00
    0.99997410770574812755E+00
    0.99990561116862364255E+00
    0.99990316210735963320E+00
    0.99978704294237163985E+00
    0.99983289384111917464E+00
    0.99993212670687636745E+00
    0.99996139057160260410E+00
    0.99998500717524951842E+00
    0.99998378854086622525E+00
    0.99999295364698215227E+00
    0.99999175768286041599E+00
    0.99997723818992145794E+00
    0.99996554809331117397E+00
    0.99995749350814422396E+00
    0.99996233598406725207E+00
    0.99940746650976863830E+00
    0.99948421423368649652E+00
    0.99899067824390197501E+00
    0.99928320394289416040E+00
    0.99969665359894732681E+00
    0.99984534043899753186E+00
    0.99993581224596894685E+00
    0.99991706864392193577E+00
    0.99996309986959763805E+00
    0.99995043012234030577E+00
    0.99985838872057275495E+00
    0.99976844044954427115E+00
    0.99977371186035046691E+00
    0.99981092418788708454E+00
    0.99801551981168035166E+00
    0.99772874589635129894E+00
    0.99398830959735728907E+00
    0.99584553978638601368E+00
    0.99841489451235521102E+00
    0.99907768673327335129E+00
    0.99963638186533831931E+00
    0.99962135804305751741E+00
    0.99985118475392165127E+00
    0.99983257423208327097E+00
    0.99952292599036485221E+00
    0.99934337079633406287E+00
    0.99907822995307915548E+00
    0.99917541337210291630E+00
    0.98144906727439562566E+00
    0.98671346274803994891E+00
    0.97351909740110131875E+00
    0.98306769307340546860E+00
    0.99280391403572754161E+00
    0.99609884184805141949E+00
    0.99828977950010688858E+00
    0.99791272443560474770E+00
    0.99905667956730115353E+00
    0.99878954014607612688E+00
    0.99655640071159823368E+00
    0.99390544099990552063E+00
    0.99452236611246591647E+00
    0.99548126771397726920E+00
    0.99789850660639489721E+00
    0.99842493374413321394E+00
    0.99728148401263316813E+00
    0.99823359579074066872E+00
    0.99922069800520985083E+00
    0.99963596728425518911E+00
    0.99983511451289819316E+00
    0.99975427355256774042E+00
    0.99987645146543269181E+00
    0.99981697207563768881E+00
    0.99949790762410961609E+00
    0.99910666921855062483E+00
    0.99930003349066109930E+00
    0.99944545675523610573E+00
    0.99573630506698407316E+00
    0.99722792491557643579E+00
    0.99582693931766641526E+00
    0.99750565639429433773E+00
    0.99885058151007655169E+00
    0.99950410261006528145E+00
    0.99975293917933361065E+00
    0.99957874908398536284E+00
    0.99975602561904830523E+00
    0.99960531005550357087E+00
    0.99897141126785626852E+00
    0.99801760029847541578E+00
    0.99874956125225244907E+00
    0.99905885363901247853E+00
    0.95268525487961297493E+00
    0.96568990420628775251E+00
    0.94335499995122507055E+00
    0.96179008197567539273E+00
    0.98191997363870620052E+00
    0.99064175141020749393E+00
    0.99544155398926148504E+00
    0.99367876750663874930E+00
    0.99666832468774635423E+00
    0.99538046741078112234E+00
    0.98828061706771241912E+00
    0.97968119634418082686E+00
    0.98388213371083743652E+00
    0.98686586138420850922E+00
    0.91729856342246118839E+00
    0.94305885213267970357E+00
    0.91881453549650493606E+00
    0.94723448263776965916E+00
    0.97333046533422595825E+00
    0.98713378740459511995E+00
    0.99305006571693155148E+00
    0.98899365112220416485E+00
    0.99324115768102716473E+00
    0.98984105573339420392E+00
    0.97630306430700108944E+00
    0.95782070855714984692E+00
    0.97152984019677923744E+00
    0.97764474397593292831E+00
    0.99999571133479803198E+00
    0.99999767722588606134E+00
    0.99999833371812285598E+00
    0.99999888152569471611E+00
    0.99999931512651707433E+00
    0.99999884529586935411E+00
    0.99999854963354184445E+00
    0.99999782386892233088E+00
    0.99999554803945933656E+00
    0.99999729725848707229E+00
    0.99999691966680770427E+00
    0.99999750337145532075E+00
    0.99999689456451323899E+00
    0.99999751054522689753E+00
    0.99999817577232297250E+00
    0.99999770730907122651E+00
    0.99999368894168794153E+00
    0.99999170427198902367E+00
    0.99999650934091355303E+00
    0.99999553603545332514E+00
    0.99999803053892510896E+00
    0.99999912780559307990E+00
    0.99999879517025391795E+00
    0.99999909499405137403E+00
    0.99999935591424182757E+00
    0.99999869805685859259E+00
    0.99999784888147325024E+00
    0.99999766740889317607E+00
    0.99999566050265165096E+00
    0.99999759626047068917E+00
    0.99999801551276479294E+00
    0.99999834271509657757E+00
    0.99999899611535869592E+00
    0.99999841641079034726E+00
    0.99999841589407034714E+00
    0.99999773893665211411E+00
    0.99999552630595789360E+00
    0.99999727742158128763E+00
    0.99999690301780064239E+00
    0.99999747240304703855E+00
    0.99999680285067249486E+00
    0.99999730065266478896E+00
    0.99999529999185754470E+00
    0.99999109603187852358E+00
    0.99997673320086155613E+00
    0.99996471198106351430E+00
    0.99998304398468973453E+00
    0.99997799854883850923E+00
    0.99999170916753810090E+00
    0.99999582810404563649E+00
    0.99999781856349312381E+00
    0.99999841180456661149E+00
    0.99999776421519537273E+00
    0.99999759455206693737E+00
    0.99999377348850326808E+00
    0.99999243632058865128E+00
    0.99996164462928094352E+00
    0.99993213317754570113E+00
    0.99983250606574214370E+00
    0.99978720086101691145E+00
    0.99990309882218320059E+00
    0.99990543213759341956E+00
    0.99996541501506119864E+00
    0.99997709425653347193E+00
    0.99999168039468644409E+00
    0.99999325911288783342E+00
    0.99998390334243381083E+00
    0.99998506020210942147E+00
    0.99996231243925337573E+00
    0.99995745286675252750E+00
    0.99907797311778046012E+00
    0.99841491113098723709E+00
    0.99584514219272513014E+00
    0.99398846320268763321E+00
    0.99772865603565907833E+00
    0.99801527485642371751E+00
    0.99934325146327052103E+00
    0.99952279136290600459E+00
    0.99983254534627119536E+00
    0.99985151222541623905E+00
    0.99962148349779067491E+00
    0.99963643158109138920E+00
    0.99917539019666357092E+00
    0.99907818235208212254E+00
    0.99984560908813813196E+00
    0.99969666406205803799E+00
    0.99928280961668325411E+00
    0.99899083506875396843E+00
    0.99948417747567841474E+00
    0.99940731670516391727E+00
    0.99976829616111151378E+00
    0.99985824846286930345E+00
    0.99995038779415779118E+00
    0.99996343218915639817E+00
    0.99991719326459471695E+00
    0.99993586428385072828E+00
    0.99981090393187199705E+00
    0.99977367621240864626E+00
    0.99609913630527513462E+00
    0.99280393505324626702E+00
    0.98306729762155353747E+00
    0.97351924320718785655E+00
    0.98671342032035291858E+00
    0.98144891981343218568E+00
    0.99390528553537638157E+00
    0.99655626776887973328E+00
    0.99878953395032821216E+00
    0.99905703277107171800E+00
    0.99791286046877958338E+00
    0.99828983080517563753E+00
    0.99548125213674432121E+00
    0.99452233093696029709E+00
    0.99999557750676937307E+00
    0.99999741075816739322E+00
    0.99999746032541558804E+00
    0.99999721227706994675E+00
    0.99999844319782238422E+00
    0.99999740512831725159E+00
    0.99999804878705667033E+00
    0.99999763008639619422E+00
    0.99999546539618677787E+00
    0.99999722849571692773E+00
    0.99999686300686529972E+00
    0.99999741490714433301E+00
    0.99999664167932578174E+00
    0.99999706143756206256E+00
    0.99999023883435256277E+00
    0.99997818321138376430E+00
    0.99994549477665728432E+00
    0.99990892186246260742E+00
    0.99995005690314220370E+00
    0.99992684387324959339E+00
    0.99997124870797082785E+00
    0.99998581968694222333E+00
    0.99999452321344906025E+00
    0.99999644651115715543E+00
    0.99999385098265780591E+00
    0.99999535777114556545E+00
    0.99998408385015591371E+00
    0.99997919494231624071E+00
    0.99999552740761576963E+00
    0.99999725690508833864E+00
    0.99999708023559807923E+00
    0.99999628866483381007E+00
    0.99999777428494018849E+00
    0.99999596355225905953E+00
    0.99999747190649967976E+00
    0.99999742395412105633E+00
    0.99999538112189290118E+00
    0.99999717175933255930E+00
    0.99999680208209551502E+00
    0.99999737371925190299E+00
    0.99999647576690364748E+00
    0.99999680720255479383E+00
    0.99998701722285632254E+00
    0.99996843810089786064E+00
    0.99992436184319277714E+00
    0.99986279232331787270E+00
    0.99991386512213920046E+00
    0.99985600096852500496E+00
    0.99993892527075867172E+00
    0.99997160726520728513E+00
    0.99998943218563407509E+00
    0.99999378197270771818E+00
    0.99998972971863586690E+00
    0.99999355872532336154E+00
    0.99997409484439703231E+00
    0.99996422880926938426E+00
    0.99963624145871765592E+00
    0.99922071021498093391E+00
    0.99823319912320551683E+00
    0.99728163784171353079E+00
    0.99842489621994534588E+00
    0.99789835963893036563E+00
    0.99910651874547284912E+00
    0.99949776988677963008E+00
    0.99981694663190101569E+00
    0.99987679588650102414E+00
    0.99975440347595367907E+00
    0.99983516628987079145E+00
    0.99944543775181637901E+00
    0.99929999797277302420E+00
    0.99064204578917702815E+00
    0.98191999448043620902E+00
    0.96178968534086628495E+00
    0.94335511227412605084E+00
    0.96568985716431976485E+00
    0.95268511516775034043E+00
    0.97968104028074309841E+00
    0.98828048811382362970E+00
    0.99538047207200419653E+00
    0.99666868393756413713E+00
    0.99367890661062119317E+00
    0.99544160487089039524E+00