# vtk DataFile Version 3.0
LAPLACIEN  2D
ASCII
DATASET UNSTRUCTURED_GRID
 POINTS        1857  float
   3.1250000000000000E-002  0.93750000000000000        0.0000000000000000     
   6.2500000000000000E-002  0.93750000000000000        0.0000000000000000     
   6.2500000000000000E-002  0.96875000000000000        0.0000000000000000     
   1.8749999999999999E-002  0.95625000000000004        0.0000000000000000     
   4.0625000000000001E-002  0.95937499999999998        0.0000000000000000     
   4.3749999999999997E-002  0.98124999999999996        0.0000000000000000     
   2.1874999999999999E-002  0.97812500000000002        0.0000000000000000     
   9.3750000000000000E-002  0.93750000000000000        0.0000000000000000     
  0.12500000000000000       0.93750000000000000        0.0000000000000000     
  0.12500000000000000       0.96875000000000000        0.0000000000000000     
   8.1250000000000003E-002  0.95625000000000004        0.0000000000000000     
  0.10312499999999999       0.95937499999999998        0.0000000000000000     
  0.10625000000000000       0.98124999999999996        0.0000000000000000     
   8.4375000000000006E-002  0.97812500000000002        0.0000000000000000     
   3.1250000000000000E-002  0.87500000000000000        0.0000000000000000     
   6.2500000000000000E-002  0.87500000000000000        0.0000000000000000     
   6.2500000000000000E-002  0.90625000000000000        0.0000000000000000     
   1.8749999999999999E-002  0.89375000000000004        0.0000000000000000     
   4.0625000000000001E-002  0.89687499999999998        0.0000000000000000     
   4.3749999999999997E-002  0.91874999999999996        0.0000000000000000     
   2.1874999999999999E-002  0.91562500000000002        0.0000000000000000     
   9.3750000000000000E-002  0.87500000000000000        0.0000000000000000     
  0.12500000000000000       0.87500000000000000        0.0000000000000000     
  0.12500000000000000       0.90625000000000000        0.0000000000000000     
   8.1250000000000003E-002  0.89375000000000004        0.0000000000000000     
  0.10312499999999999       0.89687499999999998        0.0000000000000000     
  0.10625000000000000       0.91874999999999996        0.0000000000000000     
   8.4375000000000006E-002  0.91562500000000002        0.0000000000000000     
  0.15625000000000000       0.93750000000000000        0.0000000000000000     
  0.18750000000000000       0.93750000000000000        0.0000000000000000     
  0.18750000000000000       0.96875000000000000        0.0000000000000000     
  0.14374999999999999       0.95625000000000004        0.0000000000000000     
  0.16562499999999999       0.95937499999999998        0.0000000000000000     
  0.16875000000000001       0.98124999999999996        0.0000000000000000     
  0.14687500000000001       0.97812500000000002        0.0000000000000000     
  0.21875000000000000       0.93750000000000000        0.0000000000000000     
  0.25000000000000000       0.93750000000000000        0.0000000000000000     
  0.25000000000000000       0.96875000000000000        0.0000000000000000     
  0.20624999999999999       0.95625000000000004        0.0000000000000000     
  0.22812499999999999       0.95937499999999998        0.0000000000000000     
  0.23125000000000001       0.98124999999999996        0.0000000000000000     
  0.20937500000000001       0.97812500000000002        0.0000000000000000     
  0.15625000000000000       0.87500000000000000        0.0000000000000000     
  0.18750000000000000       0.87500000000000000        0.0000000000000000     
  0.18750000000000000       0.90625000000000000        0.0000000000000000     
  0.14374999999999999       0.89375000000000004        0.0000000000000000     
  0.16562499999999999       0.89687499999999998        0.0000000000000000     
  0.16875000000000001       0.91874999999999996        0.0000000000000000     
  0.14687500000000001       0.91562500000000002        0.0000000000000000     
  0.21875000000000000       0.87500000000000000        0.0000000000000000     
  0.25000000000000000       0.87500000000000000        0.0000000000000000     
  0.25000000000000000       0.90625000000000000        0.0000000000000000     
  0.20624999999999999       0.89375000000000004        0.0000000000000000     
  0.22812499999999999       0.89687499999999998        0.0000000000000000     
  0.23125000000000001       0.91874999999999996        0.0000000000000000     
  0.20937500000000001       0.91562500000000002        0.0000000000000000     
   3.1250000000000000E-002  0.81250000000000000        0.0000000000000000     
   6.2500000000000000E-002  0.81250000000000000        0.0000000000000000     
   6.2500000000000000E-002  0.84375000000000000        0.0000000000000000     
   1.8749999999999999E-002  0.83125000000000004        0.0000000000000000     
   4.0625000000000001E-002  0.83437499999999998        0.0000000000000000     
   4.3749999999999997E-002  0.85624999999999996        0.0000000000000000     
   2.1874999999999999E-002  0.85312500000000002        0.0000000000000000     
   9.3750000000000000E-002  0.81250000000000000        0.0000000000000000     
  0.12500000000000000       0.81250000000000000        0.0000000000000000     
  0.12500000000000000       0.84375000000000000        0.0000000000000000     
   8.1250000000000003E-002  0.83125000000000004        0.0000000000000000     
  0.10312499999999999       0.83437499999999998        0.0000000000000000     
  0.10625000000000000       0.85624999999999996        0.0000000000000000     
   8.4375000000000006E-002  0.85312500000000002        0.0000000000000000     
   3.1250000000000000E-002  0.75000000000000000        0.0000000000000000     
   6.2500000000000000E-002  0.75000000000000000        0.0000000000000000     
   6.2500000000000000E-002  0.78125000000000000        0.0000000000000000     
   1.8749999999999999E-002  0.76875000000000004        0.0000000000000000     
   4.0625000000000001E-002  0.77187499999999998        0.0000000000000000     
   4.3749999999999997E-002  0.79374999999999996        0.0000000000000000     
   2.1874999999999999E-002  0.79062500000000002        0.0000000000000000     
   9.3750000000000000E-002  0.75000000000000000        0.0000000000000000     
  0.12500000000000000       0.75000000000000000        0.0000000000000000     
  0.12500000000000000       0.78125000000000000        0.0000000000000000     
   8.1250000000000003E-002  0.76875000000000004        0.0000000000000000     
  0.10312499999999999       0.77187499999999998        0.0000000000000000     
  0.10625000000000000       0.79374999999999996        0.0000000000000000     
   8.4375000000000006E-002  0.79062500000000002        0.0000000000000000     
  0.15625000000000000       0.81250000000000000        0.0000000000000000     
  0.18750000000000000       0.81250000000000000        0.0000000000000000     
  0.18750000000000000       0.84375000000000000        0.0000000000000000     
  0.14374999999999999       0.83125000000000004        0.0000000000000000     
  0.16562499999999999       0.83437499999999998        0.0000000000000000     
  0.16875000000000001       0.85624999999999996        0.0000000000000000     
  0.14687500000000001       0.85312500000000002        0.0000000000000000     
  0.21875000000000000       0.81250000000000000        0.0000000000000000     
  0.25000000000000000       0.81250000000000000        0.0000000000000000     
  0.25000000000000000       0.84375000000000000        0.0000000000000000     
  0.20624999999999999       0.83125000000000004        0.0000000000000000     
  0.22812499999999999       0.83437499999999998        0.0000000000000000     
  0.23125000000000001       0.85624999999999996        0.0000000000000000     
  0.20937500000000001       0.85312500000000002        0.0000000000000000     
  0.15625000000000000       0.75000000000000000        0.0000000000000000     
  0.18750000000000000       0.75000000000000000        0.0000000000000000     
  0.18750000000000000       0.78125000000000000        0.0000000000000000     
  0.14374999999999999       0.76875000000000004        0.0000000000000000     
  0.16562499999999999       0.77187499999999998        0.0000000000000000     
  0.16875000000000001       0.79374999999999996        0.0000000000000000     
  0.14687500000000001       0.79062500000000002        0.0000000000000000     
  0.21875000000000000       0.75000000000000000        0.0000000000000000     
  0.25000000000000000       0.75000000000000000        0.0000000000000000     
  0.25000000000000000       0.78125000000000000        0.0000000000000000     
  0.20624999999999999       0.76875000000000004        0.0000000000000000     
  0.22812499999999999       0.77187499999999998        0.0000000000000000     
  0.23125000000000001       0.79374999999999996        0.0000000000000000     
  0.20937500000000001       0.79062500000000002        0.0000000000000000     
  0.28125000000000000       0.93750000000000000        0.0000000000000000     
  0.31250000000000000       0.93750000000000000        0.0000000000000000     
  0.31250000000000000       0.96875000000000000        0.0000000000000000     
  0.26874999999999999       0.95625000000000004        0.0000000000000000     
  0.29062500000000002       0.95937499999999998        0.0000000000000000     
  0.29375000000000001       0.98124999999999996        0.0000000000000000     
  0.27187499999999998       0.97812500000000002        0.0000000000000000     
  0.34375000000000000       0.93750000000000000        0.0000000000000000     
  0.37500000000000000       0.93750000000000000        0.0000000000000000     
  0.37500000000000000       0.96875000000000000        0.0000000000000000     
  0.33124999999999999       0.95625000000000004        0.0000000000000000     
  0.35312500000000002       0.95937499999999998        0.0000000000000000     
  0.35625000000000001       0.98124999999999996        0.0000000000000000     
[...]
 CELL_DATA        3584
 SCALARS Nutrients float
 LOOKUP_TABLE default
    0.61715915792918774052E+00
    0.61719282629882155078E+00
    0.61689261014466245658E+00
    0.61689261012773655146E+00
    0.61719282518504814394E+00
    0.61715915504024065896E+00
    0.61738993252725093974E+00
    0.61752512049285257500E+00
    0.61767295452732684513E+00
    0.61767295585135373326E+00
    0.61752512241369328372E+00
    0.61738993503522476836E+00
    0.61740869671800391316E+00
    0.61740869625180161417E+00
    0.61617328967782791782E+00
    0.61594919458630148501E+00
    0.61528186449123323243E+00
    0.61516609361949314838E+00
    0.61568128194555460375E+00
    0.61552476700835123680E+00
    0.61598913784132436344E+00
    0.61637965517758763756E+00
    0.61682507952067200385E+00
    0.61698766539034899381E+00
    0.61668374822980975836E+00
    0.61670429342788724014E+00
    0.61627289255059469752E+00
    0.61618902822656862472E+00
    0.61552476894017904563E+00
    0.61568128277765188372E+00
    0.61516609340001549011E+00
    0.61528186544722018869E+00
    0.61594919504856937564E+00
    0.61617328985593478041E+00
    0.61670429401733806163E+00
    0.61668374897920874567E+00
    0.61698766704592955534E+00
    0.61682508181558470817E+00
    0.61637965707771391610E+00
    0.61598913967249913082E+00
    0.61618902913915873931E+00
    0.61627289327159884280E+00
    0.61407069786821433244E+00
    0.61388523667730754418E+00
    0.61278267015240750482E+00
    0.61278267076449177697E+00
    0.61388523613918699606E+00
    0.61407069624556887000E+00
    0.61501233221287920916E+00
    0.61523749196512633741E+00
    0.61595587754989722384E+00
    0.61595587831865483697E+00
    0.61523749249973436193E+00
    0.61501233290922885377E+00
    0.61462939995254728398E+00
    0.61462939982349806822E+00
    0.61389694075738510115E+00
    0.61349716903525486345E+00
    0.61244642605608878849E+00
    0.61229646363714129720E+00
    0.61308359277618884597E+00
    0.61287503099767082215E+00
    0.61355545551464885090E+00
    0.61416060057335741806E+00
    0.61488769335342385869E+00
    0.61519080761527522583E+00
    0.61469250969002153795E+00
    0.61479527631292352208E+00
    0.61400043868298259664E+00
    0.61386181741111423005E+00
    0.61045400032542651569E+00
    0.61000952739854730211E+00
    0.60860760332287389129E+00
    0.60853943913127095389E+00
    0.60963244736300714610E+00
    0.60947271120563750735E+00
    0.61031387592090446947E+00
    0.61105176963867224860E+00
    0.61200523940392337341E+00
    0.61240574380470602645E+00
    0.61168553639779366105E+00
    0.61176773175340326549E+00
    0.61076293255594316101E+00
    0.61061472735115052135E+00
    0.61061750834783912190E+00
    0.61023483555884339147E+00
    0.60842927191572893086E+00
    0.60847611802302681294E+00
    0.61023326818621059786E+00
    0.61057780964513586053E+00
    0.61202188617000763404E+00
    0.61238114193468140556E+00
    0.61356370169351792665E+00
    0.61363927503613879821E+00
    0.61247703252793384010E+00
    0.61223491734419221988E+00
    0.61142787394740982787E+00
    0.61141358602245432508E+00
    0.60515634670518814175E+00
    0.60481571237597753221E+00
    0.60225026166084294488E+00
    0.60258725142307656419E+00
    0.60520210580014532908E+00
    0.60596266681107291419E+00
    0.60795174371706661720E+00
    0.60827154127146521034E+00
    0.60992625079248619091E+00
    0.60995501828347220563E+00
    0.60816596991754845458E+00
    0.60766009760837746967E+00
    0.60669777587563100685E+00
    0.60676990490767934716E+00
    0.61287503186073255534E+00
    0.61308359175982096723E+00
    0.61229646254225622570E+00
    0.61244642621803602189E+00
    0.61349716786655383860E+00
    0.61389694056393784294E+00
    0.61479527599863981191E+00
    0.61469250842104894428E+00
    0.61519080792994240703E+00
    0.61488769409287735712E+00
    0.61416060029829455669E+00
    0.61355545590725979466E+00
    0.61386181521049332233E+00
    0.61400043633803480514E+00
    0.61057781106046105091E+00
    0.61023326880609096712E+00
    0.60847611752887409420E+00
    0.60842927262375423592E+00
    0.61023483533228728426E+00
    0.61061750722819496673E+00
    0.61223491684814312919E+00
    0.61247703271910491907E+00
    0.61363927579222943276E+00
    0.61356370286687900162E+00
    0.61238114257713294197E+00
    0.61202188642897459303E+00
    0.61141358643175547360E+00
    0.61142787422108968443E+00
    0.60947271202881903029E+00
    0.60963244627384804986E+00
    0.60853943800639487272E+00
    0.60860760343879338752E+00
    0.61000952607426117691E+00
    0.61045399983160075763E+00
    0.61176773083766322614E+00
    0.61168553467764741338E+00
    0.61240574342582976275E+00
    0.61200523969947007163E+00
    0.61105176914774972374E+00
    0.61031387621847543734E+00
    0.61061472498020685773E+00
    0.61076292999634496095E+00
    0.60596266822349909020E+00
    0.60520210642578387006E+00
    0.60258725094456833116E+00
    0.60225026239253232063E+00
    0.60481571220965857361E+00
    0.60515634571187815194E+00
    0.60766009724745218001E+00
    0.60816597009205841662E+00
    0.60995501873854074404E+00
    0.60992625163138491917E+00
    0.60827154182610998490E+00
    0.60795174394262341266E+00
    0.60676990531228958137E+00
    0.60669777616241993279E+00
    0.60491257948924326282E+00
    0.60418436089614280249E+00
    0.60113067871443481849E+00
    0.60113067934056352293E+00
    0.60418436055001423224E+00
    0.60491257839687184727E+00
    0.60752763669907328126E+00
    0.60793576503436397296E+00
    0.60993123786680347731E+00
    0.60993123786486136417E+00
    0.60793576520596259716E+00
    0.60752763725217306945E+00
    0.60618369174512454212E+00
    0.60618369169788788309E+00
    0.59535909525896191230E+00
    0.59459830246143663413E+00
    0.58992652682164314903E+00
    0.59043666748963352653E+00
    0.59531527045476395621E+00
    0.59693871714461954614E+00
    0.60078628181715243439E+00
    0.60104615577466968812E+00
    0.60401707348871147563E+00
    0.60386605434979434559E+00
    0.60059966234905848292E+00
    0.59969513003054941702E+00
    0.59798190456102395807E+00
    0.59815247680303362809E+00
    0.59693871829859246336E+00
    0.59531527085335633753E+00
    0.59043666673702743797E+00
    0.58992652748273977092E+00
    0.59459830207173469674E+00
    0.59535909408466991533E+00
    0.59969512954877435273E+00
    0.60059966220977423212E+00
    0.60386605434194584596E+00
    0.60401707355974498803E+00
    0.60104615598409327770E+00
    0.60078628237393549849E+00
    0.59815247687992967318E+00
    0.59798190452823607455E+00
    0.58044728123038136225E+00
    0.57820050865988836808E+00
    0.56993074002868515660E+00
    0.56993074078581063002E+00
    0.57820050806473732852E+00
    0.58044727970832010744E+00
    0.58738354197788600342E+00
    0.58821848191556358465E+00
    0.59348240196430279703E+00
    0.59348240188978518272E+00
    0.58821848209852001244E+00
    0.58738354266482528665E+00
    0.58348580303457941998E+00
    0.58348580294121665801E+00
    0.60619391510291009695E+00
    0.60589307600257935604E+00
    0.60425736254102191403E+00
    0.60440734053111611068E+00
    0.60578604959189219503E+00
    0.60579373797947622116E+00
    0.60669319614254613171E+00
    0.60743327078352715720E+00
    0.60850015969193593790E+00
    0.60892536380903883320E+00
    0.60798507863120787587E+00
    0.60791297364390928237E+00
    0.60694160337543967554E+00
    0.60684500662208162858E+00
    0.60176615309919923025E+00
    0.60181437697090267580E+00
    0.60014724710738398539E+00
    0.60062690716185795914E+00
    0.60219981038773218174E+00
    0.60247596516575696590E+00
    0.60329985552238440949E+00
    0.60388491874727623365E+00
    0.60490233414519045674E+00
    0.60525678311656150310E+00
    0.60414608217301701831E+00
    0.60378376166484337695E+00
    0.60314564904545175938E+00
    0.60316386666423404961E+00
    0.59806680396225209151E+00
    0.59814706006373330460E+00
    0.59494954620030271464E+00
    0.59587305394601219888E+00
    0.59941581661292420158E+00
    0.60085455741207205449E+00
    0.60331825690446694299E+00
    0.60336396163044636598E+00
    0.60540024142018600273E+00
    0.60521731255485866630E+00
    0.60266538287792026374E+00
    0.60157779927979926349E+00
    0.60091121806402025829E+00
    0.60119965238620942660E+00
    0.59045002321894024533E+00
    0.59137218296691784758E+00
    0.58791283961820239856E+00
    0.58963457018666476372E+00
    0.59393639154000754665E+00
    0.59619904346389007710E+00
    0.59893093487188941992E+00
    0.59847432913192588622E+00
    0.60067684279339261799E+00
    0.60011264820420540111E+00
    0.59680849442578265407E+00
    0.59484227680352896872E+00
    0.59503275416581047352E+00
    0.59565292572166039786E+00
    0.59800471118359865841E+00
    0.59854904375091910751E+00
    0.59708053949259942694E+00
    0.59793306246626454215E+00
    0.59955719761707138016E+00
    0.60015065699855796311E+00
    0.60077095160230764570E+00
    0.60106267165196480828E+00
    0.60185914226936143567E+00
    0.60204985927277410163E+00
    0.60086516774189868695E+00
    0.60012431505534002962E+00
    0.60008320003561188560E+00
    0.60025996626515332188E+00
    0.59565370261363492776E+00
    0.59673472748521472209E+00
    0.59565236309995583941E+00
    0.59684422896848121631E+00
    0.59836675755587265257E+00
    0.59926307079637941566E+00
    0.59959164143295518024E+00
    0.59950905990169478521E+00
    0.59995377303029595595E+00
    0.59991814396157072675E+00
    0.59877688943628748497E+00
    0.59764855902915392516E+00
    0.59834749269411779959E+00
    0.59869411851751253018E+00
    0.58393591166447578189E+00
    0.58593560557678703304E+00
    0.58268178997851460821E+00
    0.58520762754971633601E+00
    0.58990248400789058181E+00
    0.59294026592224602368E+00
    0.59565866717141024989E+00
    0.59457290075383095740E+00
    0.59665802930887945621E+00
    0.59561100031697722379E+00
    0.59176220225269793307E+00
    0.58880306616336941516E+00
    0.59027158871951346253E+00
    0.59126525927672290983E+00
    0.57991078042753774202E+00
    0.58294462286389281402E+00
    0.58027370934365307686E+00
    0.58343427508519818403E+00
    0.58809770451461884644E+00
    0.59170244697968055192E+00
    0.59413792465510373297E+00
    0.59243386416712939813E+00
    0.59414642155203734042E+00
    0.59262444361632704570E+00
    0.58856674232916339484E+00
    0.58474299605578272665E+00
    0.58759121424997962091E+00
    0.58891368315434411418E+00
    0.58196890916398946736E+00
    0.58196214762612263893E+00
    0.57574239077160405120E+00
    0.57749242113083987249E+00
    0.58453413090887029746E+00
    0.58770007092665155213E+00
    0.59275825966850070881E+00
    0.59237620807524904443E+00
    0.59626722085189098888E+00
    0.59561501451520915129E+00
    0.59063329222406646402E+00
    0.58852835244606993559E+00
    0.58730737882870509559E+00
    0.58793994122856929607E+00
    0.56679138521086391833E+00
    0.56863146200116199136E+00
    0.56171639058176670023E+00
    0.56525737708209877752E+00
    0.57410560581283509585E+00
    0.57915285608756328362E+00
    0.58499840940845482251E+00
    0.58347967195042749200E+00
    0.58788592338756084921E+00
    0.58634105932067426270E+00
    0.57954273232827679951E+00
    0.57546429666798781799E+00
    0.57607057675903106109E+00
    0.57745018809679793392E+00
    0.55429757347805941325E+00
    0.55281209727680991062E+00
    0.54041877085637224365E+00
    0.54288553290565866316E+00
    0.55622868991207619072E+00
    0.56176953355144310098E+00
    0.57158206895209917597E+00
    0.57123746938284991614E+00
    0.57871326877955275858E+00
    0.57784585840047009153E+00
    0.56897056225714037758E+00
    0.56610986191809142820E+00
    0.56231936144717742376E+00
    0.56315239015694640301E+00
    0.52121048856573415353E+00
    0.52409039467596307826E+00
    0.50997799076574656940E+00
    0.51683695222159464766E+00
    0.53437746814148823216E+00
    0.54426113017297950147E+00
    0.55589875624166507073E+00
    0.55299590357969841126E+00
    0.56178334171699906285E+00
    0.55896124140847336381E+00
    0.54579335508020898615E+00
    0.53848394094756313333E+00
    0.53862399186293219433E+00
    0.54118733701080989906E+00
    0.55386108709245551740E+00
    0.55805625911782930082E+00
    0.55155044999670721495E+00
    0.55678485482191764078E+00
    0.56654363373551874794E+00
    0.57324750349414466122E+00
    0.57924470559448437701E+00
    0.57639805581635350507E+00
    0.58071005452940949176E+00
    0.57808012956777143909E+00
    0.56994613128970295080E+00
    0.56364502446135045233E+00
    0.56701997909794077390E+00
    0.56920997367855219462E+00
    0.54617178807601296509E+00
    0.55242327726863460491E+00
    0.54702679547866972509E+00
    0.55348406657278836906E+00
    0.56323673809906538157E+00
    0.57104231204969713165E+00
    0.57660901584308810186E+00
    0.57258250688509415571E+00
    0.57628642221688530789E+00
    0.57268221891719717220E+00
    0.56400731858551755860E+00
    0.55591550432752168120E+00
    0.56205177545943918460E+00
    0.56489401067217892560E+00
    0.49408536473996267357E+00
    0.50248081056771853881E+00
    0.48971795298957448983E+00
    0.50013785845008351671E+00
    0.51938226797882192098E+00
    0.53271540593932020791E+00
    0.54462478017167847977E+00
    0.53884807676996571146E+00
    0.54737786269356070168E+00
    0.54211616057114730971E+00
    0.52600044047343086362E+00
    0.51356082413774029050E+00
    0.52022179846997762542E+00
    0.52458177159415775304E+00
    0.47940719144598920032E+00
    0.49180087931089322417E+00
    0.48127428571067604191E+00
    0.49397772336249184955E+00
    0.51315322573503063808E+00
    0.52857271153432183741E+00
    0.53965518731881412240E+00
    0.53158077423866034739E+00
    0.53888127396004259495E+00
    0.53164328883200273612E+00
    0.51452296137335551407E+00
    0.49849867889109189534E+00
    0.51074381954135761319E+00
    0.51637303185955063523E+00
    0.60579373882495513026E+00
    0.60578604852384709822E+00
    0.60440733942650448629E+00
    0.60425736267361851439E+00
    0.60589307468985553751E+00
    0.60619391461137361876E+00
    0.60791297271563116134E+00
    0.60798507691018466303E+00
    0.60892536341642311548E+00
    0.60850015998762918557E+00
    0.60743327030409077771E+00
    0.60669319645874986158E+00
    0.60684500426547471896E+00
    0.60694160082709591730E+00
    0.60085455880481541957E+00
    0.59941581726601311786E+00
    0.59587305347147934143E+00
    0.59494954704037061877E+00
    0.59814705994446182302E+00
    0.59806680289945113316E+00
    0.60157779893673479776E+00
    0.60266538306481454157E+00
    0.60521731301289616312E+00
    0.60540024226291777598E+00
    0.60336396219741839086E+00
    0.60331825713849740467E+00
    0.60119965281436782423E+00
    0.60091121837617444967E+00
    0.60247596603537489912E+00
    0.60219980934259209615E+00
    0.60062690608134050585E+00
    0.60014724724581758331E+00
    0.60181437566028672670E+00
    0.60176615257655308167E+00
    0.60378376074696804565E+00
    0.60414608047357210019E+00
    0.60525678274732097606E+00
    0.60490233446487751134E+00
    0.60388491829109725018E+00
    0.60329985586303225276E+00
    0.60316386432948387863E+00
    0.60314564651636881631E+00
    0.59619904498719078489E+00
    0.59393639224183414349E+00
    0.58963456962440574660E+00
    0.58791284038437074955E+00
    0.59137218272706659761E+00
    0.59045002217572495340E+00
    0.59484227649693244278E+00
    0.59680849465164342860E+00
    0.60011264867496327824E+00
    0.60067684363572204642E+00
    0.59847432968870362124E+00
    0.59893093510827999371E+00
    0.59565292615087384043E+00
    0.59503275446092240841E+00
    0.58770007228680032352E+00
    0.58453413133115283973E+00
    0.57749242016891000340E+00
    0.57574239126563753199E+00
    0.58196214702755855175E+00
    0.58196890796570277526E+00
    0.58852835182039731077E+00
    0.59063329202946257546E+00
    0.59561501457564403061E+00
    0.59626722085758121494E+00
    0.59237620825054904117E+00
    0.59275826035642575906E+00
    0.58793994125065662804E+00
    0.58730737868972737736E+00
    0.56176953542274421505E+00
    0.55622869048929401981E+00
    0.54288553180656595742E+00
    0.54041877122270620681E+00
    0.55281209634288219767E+00
    0.55429757186509431843E+00
    0.56610986105492167031E+00
    0.56897056197248807585E+00
    0.57784585887466477505E+00
    0.57871326893665320235E+00
    0.57123746961980692571E+00
    0.57158206966960012352E+00
    0.56315239013292228698E+00
    0.56231936114219760459E+00
    0.57915285771001345783E+00
    0.57410560632565499350E+00
    0.56525737608117365696E+00
    0.56171639108255633221E+00
    0.56863146146334775377E+00
    0.56679138422616037740E+00
    0.57546429587556080509E+00
    0.57954273208033868503E+00
    0.58634105966219529638E+00
    0.58788592355445712379E+00
    0.58347967220713004011E+00
    0.58499841018609222143E+00
    0.57745018813529769286E+00
    0.57607057659916116599E+00
    0.54426113229055583798E+00
    0.53437746891120030401E+00
    0.51683695119654282646E+00
    0.50997799123470755056E+00
    0.52409039413916502781E+00
    0.52121048769101241405E+00
    0.53848394005938404749E+00
    0.54579335502372916533E+00
    0.55896124232750210581E+00
    0.56178334224566128796E+00
    0.55299590407155019278E+00
    0.55589875706609692685E+00
    0.54118733722172696066E+00
    0.53862399181697928618E+00
    0.60015065789797061857E+00
    0.59955719659158646095E+00
    0.59793306137276769352E+00
    0.59708053962439500140E+00
    0.59854904246588391814E+00
    0.59800471072956817853E+00
    0.60012431417788936194E+00
    0.60086516606940232332E+00
    0.60204985892821405447E+00
    0.60185914261458295371E+00
    0.60106267122176160189E+00
    0.60077095197282370798E+00
    0.60025996395395375682E+00
    0.60008319753027439258E+00
    0.59294026733131233176E+00
    0.58990248469885964155E+00
    0.58520762695262895647E+00
    0.58268179073089954034E+00
    0.58593560537912348085E+00
    0.58393591077468320893E+00
    0.58880306580819630202E+00
    0.59176220254845679491E+00
    0.59561100103829600627E+00
    0.59665803032511566251E+00
    0.59457290133925411180E+00
    0.59565866736312145235E+00
    0.59126525970312027169E+00
    0.59027158902717613564E+00
    0.59926307173745496648E+00
    0.59836675654822513160E+00
    0.59684422789693092337E+00
    0.59565236324162951220E+00
    0.59673472613515099461E+00
    0.59565370194969835538E+00
    0.59764855810898520616E+00
    0.59877688774693271778E+00
    0.59991814364392226366E+00
    0.59995377340855315929E+00
    0.59950905949040667053E+00
    0.59959164184285707044E+00
    0.59869411617425472016E+00
    0.59834749016760868656E+00
    0.59170244839281449512E+00
    0.58809770526053883888E+00
    0.58343427458554930620E+00
    0.58027371000030181225E+00
    0.58294462265572355442E+00
    0.57991077959049908142E+00
    0.58474299565977505555E+00
    0.58856674253574714495E+00
    0.59262444423349858180E+00
    0.59414642239037906979E+00
    0.59243386468617398322E+00
    0.59413792486107175339E+00
    0.58891368356765250169E+00
    0.58759121452592311119E+00
    0.57324750523305123551E+00
    0.56654363431342669166E+00
    0.55678485379790321197E+00
    0.55155045050679507579E+00
    0.55805625863221575145E+00
    0.55386108623291829822E+00
    0.56364502364951651892E+00
    0.56994613113678238570E+00
    0.57808013020457971187E+00
    0.58071005492935123815E+00
    0.57639805619956940852E+00
    0.57924470642084702199E+00
    0.56920997378957838286E+00
    0.56701997899904510447E+00
    0.53271540804488548559E+00
    0.51938226874932336141E+00
    0.50013785726162174328E+00
    0.48971795325110506480E+00
    0.50248081004628109003E+00
    0.49408536392524765590E+00
    0.51356082331593977397E+00
    0.52600044056673878057E+00
    0.54211616175100585391E+00
    0.54737786342592553712E+00
    0.53884807738545947853E+00
    0.54462478102862099671E+00