# vtk DataFile Version 3.0
LAPLACIEN  2D
ASCII
DATASET UNSTRUCTURED_GRID
 POINTS        1857  float
   3.1250000000000000E-002  0.93750000000000000        0.0000000000000000     
   6.2500000000000000E-002  0.93750000000000000        0.0000000000000000     
   6.2500000000000000E-002  0.96875000000000000        0.0000000000000000     
   1.8749999999999999E-002  0.95625000000000004        0.0000000000000000     
   4.0625000000000001E-002  0.95937499999999998        0.0000000000000000     
   4.3749999999999997E-002  0.98124999999999996        0.0000000000000000     
   2.1874999999999999E-002  0.97812500000000002        0.0000000000000000     
   9.3750000000000000E-002  0.93750000000000000        0.0000000000000000     
  0.12500000000000000       0.93750000000000000        0.0000000000000000     
  0.12500000000000000       0.96875000000000000        0.0000000000000000     
   8.1250000000000003E-002  0.95625000000000004        0.0000000000000000     
  0.10312499999999999       0.95937499999999998        0.0000000000000000     
  0.10625000000000000       0.98124999999999996        0.0000000000000000     
   8.4375000000000006E-002  0.97812500000000002        0.0000000000000000     
   3.1250000000000000E-002  0.87500000000000000        0.0000000000000000     
   6.2500000000000000E-002  0.87500000000000000        0.0000000000000000     
   6.2500000000000000E-002  0.90625000000000000        0.0000000000000000     
   1.8749999999999999E-002  0.89375000000000004        0.0000000000000000     
   4.0625000000000001E-002  0.89687499999999998        0.0000000000000000     
   4.3749999999999997E-002  0.91874999999999996        0.0000000000000000     
   2.1874999999999999E-002  0.91562500000000002        0.0000000000000000     
   9.3750000000000000E-002  0.87500000000000000        0.0000000000000000     
  0.12500000000000000       0.87500000000000000        0.0000000000000000     
  0.12500000000000000       0.90625000000000000        0.0000000000000000     
   8.1250000000000003E-002  0.89375000000000004        0.0000000000000000     
  0.10312499999999999       0.89687499999999998        0.0000000000000000     
  0.10625000000000000       0.91874999999999996        0.0000000000000000     
   8.4375000000000006E-002  0.91562500000000002        0.0000000000000000     
  0.15625000000000000       0.93750000000000000        0.0000000000000000     
  0.18750000000000000       0.93750000000000000        0.0000000000000000     
  0.18750000000000000       0.96875000000000000        0.0000000000000000     
  0.14374999999999999       0.95625000000000004        0.0000000000000000     
  0.16562499999999999       0.95937499999999998        0.0000000000000000     
  0.16875000000000001       0.98124999999999996        0.0000000000000000     
  0.14687500000000001       0.97812500000000002        0.0000000000000000     
  0.21875000000000000       0.93750000000000000        0.0000000000000000     
  0.25000000000000000       0.93750000000000000        0.0000000000000000     
  0.25000000000000000       0.96875000000000000        0.0000000000000000     
  0.20624999999999999       0.95625000000000004        0.0000000000000000     
  0.22812499999999999       0.95937499999999998        0.0000000000000000     
  0.23125000000000001       0.98124999999999996        0.0000000000000000     
  0.20937500000000001       0.97812500000000002        0.0000000000000000     
  0.15625000000000000       0.87500000000000000        0.0000000000000000     
  0.18750000000000000       0.87500000000000000        0.0000000000000000     
  0.18750000000000000       0.90625000000000000        0.0000000000000000     
  0.14374999999999999       0.89375000000000004        0.0000000000000000     
  0.16562499999999999       0.89687499999999998        0.0000000000000000     
  0.16875000000000001       0.91874999999999996        0.0000000000000000     
  0.14687500000000001       0.91562500000000002        0.0000000000000000     
  0.21875000000000000       0.87500000000000000        0.0000000000000000     
  0.25000000000000000       0.87500000000000000        0.0000000000000000     
  0.25000000000000000       0.90625000000000000        0.0000000000000000     
  0.20624999999999999       0.89375000000000004        0.0000000000000000     
  0.22812499999999999       0.89687499999999998        0.0000000000000000     
  0.23125000000000001       0.91874999999999996        0.0000000000000000     
  0.20937500000000001       0.91562500000000002        0.0000000000000000     
   3.1250000000000000E-002  0.81250000000000000        0.0000000000000000     
   6.2500000000000000E-002  0.81250000000000000        0.0000000000000000     
   6.2500000000000000E-002  0.84375000000000000        0.0000000000000000     
   1.8749999999999999E-002  0.83125000000000004        0.0000000000000000     
   4.0625000000000001E-002  0.83437499999999998        0.0000000000000000     
   4.3749999999999997E-002  0.85624999999999996        0.0000000000000000     
   2.1874999999999999E-002  0.85312500000000002        0.0000000000000000     
   9.3750000000000000E-002  0.81250000000000000        0.0000000000000000     
  0.12500000000000000       0.81250000000000000        0.0000000000000000     
  0.12500000000000000       0.84375000000000000        0.0000000000000000     
   8.1250000000000003E-002  0.83125000000000004        0.0000000000000000     
  0.10312499999999999       0.83437499999999998        0.0000000000000000     
  0.10625000000000000       0.85624999999999996        0.0000000000000000     
   8.4375000000000006E-002  0.85312500000000002        0.0000000000000000     
   3.1250000000000000E-002  0.75000000000000000        0.0000000000000000     
   6.2500000000000000E-002  0.75000000000000000        0.0000000000000000     
   6.2500000000000000E-002  0.78125000000000000        0.0000000000000000     
   1.8749999999999999E-002  0.76875000000000004        0.0000000000000000     
   4.0625000000000001E-002  0.77187499999999998        0.0000000000000000     
   4.3749999999999997E-002  0.79374999999999996        0.0000000000000000     
   2.1874999999999999E-002  0.79062500000000002        0.0000000000000000     
   9.3750000000000000E-002  0.75000000000000000        0.0000000000000000     
  0.12500000000000000       0.75000000000000000        0.0000000000000000     
  0.12500000000000000       0.78125000000000000        0.0000000000000000     
   8.1250000000000003E-002  0.76875000000000004        0.0000000000000000     
  0.10312499999999999       0.77187499999999998        0.0000000000000000     
  0.10625000000000000       0.79374999999999996        0.0000000000000000     
   8.4375000000000006E-002  0.79062500000000002        0.0000000000000000     
  0.15625000000000000       0.81250000000000000        0.0000000000000000     
  0.18750000000000000       0.81250000000000000        0.0000000000000000     
  0.18750000000000000       0.84375000000000000        0.0000000000000000     
  0.14374999999999999       0.83125000000000004        0.0000000000000000     
  0.16562499999999999       0.83437499999999998        0.0000000000000000     
  0.16875000000000001       0.85624999999999996        0.0000000000000000     
  0.14687500000000001       0.85312500000000002        0.0000000000000000     
  0.21875000000000000       0.81250000000000000        0.0000000000000000     
  0.25000000000000000       0.81250000000000000        0.0000000000000000     
  0.25000000000000000       0.84375000000000000        0.0000000000000000     
  0.20624999999999999       0.83125000000000004        0.0000000000000000     
  0.22812499999999999       0.83437499999999998        0.0000000000000000     
  0.23125000000000001       0.85624999999999996        0.0000000000000000     
  0.20937500000000001       0.85312500000000002        0.0000000000000000     
  0.15625000000000000       0.75000000000000000        0.0000000000000000     
  0.18750000000000000       0.75000000000000000        0.0000000000000000     
  0.18750000000000000       0.78125000000000000        0.0000000000000000     
  0.14374999999999999       0.76875000000000004        0.0000000000000000     
  0.16562499999999999       0.77187499999999998        0.0000000000000000     
  0.16875000000000001       0.79374999999999996        0.0000000000000000     
  0.14687500000000001       0.79062500000000002        0.0000000000000000     
  0.21875000000000000       0.75000000000000000        0.0000000000000000     
  0.25000000000000000       0.75000000000000000        0.0000000000000000     
  0.25000000000000000       0.78125000000000000        0.0000000000000000     
  0.20624999999999999       0.76875000000000004        0.0000000000000000     
  0.22812499999999999       0.77187499999999998        0.0000000000000000     
  0.23125000000000001       0.79374999999999996        0.0000000000000000     
  0.20937500000000001       0.79062500000000002        0.0000000000000000     
  0.28125000000000000       0.93750000000000000        0.0000000000000000     
  0.31250000000000000       0.93750000000000000        0.0000000000000000     
  0.31250000000000000       0.96875000000000000        0.0000000000000000     
  0.26874999999999999       0.95625000000000004        0.0000000000000000     
  0.29062500000000002       0.95937499999999998        0.0000000000000000     
  0.29375000000000001       0.98124999999999996        0.0000000000000000     
  0.27187499999999998       0.97812500000000002        0.0000000000000000     
  0.34375000000000000       0.93750000000000000        0.0000000000000000     
  0.37500000000000000       0.93750000000000000        0.0000000000000000     
  0.37500000000000000       0.96875000000000000        0.0000000000000000     
  0.33124999999999999       0.95625000000000004        0.0000000000000000     
  0.35312500000000002       0.95937499999999998        0.0000000000000000     
  0.35625000000000001       0.98124999999999996        0.0000000000000000     
[...]
 CELL_DATA        3584
 SCALARS Nutrients float
 LOOKUP_TABLE default
    0.61715960458832352931E+00
    0.61719326232863880310E+00
    0.61689305534910876538E+00
    0.61689305507789993221E+00
    0.61719326164319188166E+00
    0.61715960329203300994E+00
    0.61739041920362403015E+00
    0.61752560289500069146E+00
    0.61767349761173462319E+00
    0.61767349895379730640E+00
    0.61752560474398066059E+00
    0.61739042106244002017E+00
    0.61740906171135134795E+00
    0.61740906130232842131E+00
    0.61617353235678151702E+00
    0.61594925321443549926E+00
    0.61528176970413817060E+00
    0.61516589811480315575E+00
    0.61568112784711337415E+00
    0.61552451791085516231E+00
    0.61598903541887217727E+00
    0.61637970449471013445E+00
    0.61682535383131187334E+00
    0.61698804746048840908E+00
    0.61668400989766425369E+00
    0.61670468085780638656E+00
    0.61627288045787831372E+00
    0.61618895327993838951E+00
    0.61552451973122357387E+00
    0.61568112917131145867E+00
    0.61516589842122693099E+00
    0.61528177175751885830E+00
    0.61594925487595897362E+00
    0.61617353386913853441E+00
    0.61670468206732398375E+00
    0.61668401058596167275E+00
    0.61698804762859349449E+00
    0.61682535518096059945E+00
    0.61637970660160135150E+00
    0.61598903778603675274E+00
    0.61618895478347324168E+00
    0.61627288182072792466E+00
    0.61407023747278421943E+00
    0.61388466830070187452E+00
    0.61278169580086117030E+00
    0.61278169646501601253E+00
    0.61388466750833292629E+00
    0.61407023536971649946E+00
    0.61501218066292495656E+00
    0.61523738938365646334E+00
    0.61595606739642561056E+00
    0.61595606912803091415E+00
    0.61523739146401767997E+00
    0.61501218262470702669E+00
    0.61462899162216011462E+00
    0.61462899117207581146E+00
    0.61389632016805206760E+00
    0.61349626527083800376E+00
    0.61244520003283786647E+00
    0.61229517168540670280E+00
    0.61308244130666644800E+00
    0.61287381544939656397E+00
    0.61355439236903230871E+00
    0.61415973022804803971E+00
    0.61488712571042025701E+00
    0.61519041497769089144E+00
    0.61469195678433019570E+00
    0.61479493337080426407E+00
    0.61399951122033702422E+00
    0.61386080591388669792E+00
    0.61045190992073472547E+00
    0.61000733749312086029E+00
    0.60860475446585848847E+00
    0.60853692295235706222E+00
    0.60963044505540597839E+00
    0.60947095000069517745E+00
    0.61031218837911438424E+00
    0.61105009923068587252E+00
    0.61200377634079194955E+00
    0.61240439926690692918E+00
    0.61168397247461547828E+00
    0.61176624151629555026E+00
    0.61076101313684638683E+00
    0.61061281768555852878E+00
    0.61061500493153264557E+00
    0.61023191824480760292E+00
    0.60842436309219083412E+00
    0.60847148627491887130E+00
    0.61023049951188301776E+00
    0.61057556157738035463E+00
    0.61202046329491244236E+00
    0.61237982849905669980E+00
    0.61356298787494412128E+00
    0.61363863066263768520E+00
    0.61247578755366449688E+00
    0.61223361079489158065E+00
    0.61142587283857829927E+00
    0.61141159422014157432E+00
    0.60514528102980202906E+00
    0.60480446099854601183E+00
    0.60223173038806876445E+00
    0.60257131991875256816E+00
    0.60519323291383186891E+00
    0.60595649561296860419E+00
    0.60794806463607287128E+00
    0.60826755209211014197E+00
    0.60992374138047023013E+00
    0.60995235052454743752E+00
    0.60816117040442674302E+00
    0.60765423668933538082E+00
    0.60669090715839568695E+00
    0.60676348914512701072E+00
    0.61287381328778711698E+00
    0.61308243719944810479E+00
    0.61229516806006500929E+00
    0.61244519847000511437E+00
    0.61349626223446585005E+00
    0.61389631932134691716E+00
    0.61479493292508380353E+00
    0.61469195404207954692E+00
    0.61519041453792999707E+00
    0.61488712495534303404E+00
    0.61415972728906143008E+00
    0.61355439000948475137E+00
    0.61386080060323000573E+00
    0.61399950614401788140E+00
    0.61057556204764429353E+00
    0.61023049976552290463E+00
    0.60847148513399618164E+00
    0.60842436369818542197E+00
    0.61023191780194030454E+00
    0.61061500356550313384E+00
    0.61223361018311606152E+00
    0.61247578778253430887E+00
    0.61363863153509623505E+00
    0.61356298856962188104E+00
    0.61237982869160056953E+00
    0.61202046237029195108E+00
    0.61141159449721371733E+00
    0.61142587304094853096E+00
    0.60947094809401014537E+00
    0.60963044101578867107E+00
    0.60853691888040450930E+00
    0.60860475251577217382E+00
    0.61000733346121038814E+00
    0.61045190669100246605E+00
    0.61176623786752637457E+00
    0.61168396777975564405E+00
    0.61240439585992867411E+00
    0.61200377349571455365E+00
    0.61105009565955037409E+00
    0.61031218578308499279E+00
    0.61061281247254817206E+00
    0.61076100777709319001E+00
    0.60595649638493398470E+00
    0.60519323275815894991E+00
    0.60257131822063181303E+00
    0.60223173038333999152E+00
    0.60480445983534558696E+00
    0.60514527956693264787E+00
    0.60765423545618835188E+00
    0.60816116948350673610E+00
    0.60995234995534208799E+00
    0.60992374010398797690E+00
    0.60826755124909515082E+00
    0.60794806363122078086E+00
    0.60676348850031081028E+00
    0.60669090635615008367E+00
    0.60489995103007954125E+00
    0.60416882613670663815E+00
    0.60110321604689009867E+00
    0.60110321687738688112E+00
    0.60416882528111481854E+00
    0.60489994895164012068E+00
    0.60752101139494940618E+00
    0.60792959194871365458E+00
    0.60992802007481905502E+00
    0.60992801986771738587E+00
    0.60792959232057675045E+00
    0.60752101239275313471E+00
    0.60617378961731804843E+00
    0.60617378944114874706E+00
    0.59529216227850412224E+00
    0.59452476784495822404E+00
    0.58980429775958287397E+00
    0.59032347213107283501E+00
    0.59525093990599897698E+00
    0.59689086380596667603E+00
    0.60076045680284473338E+00
    0.60101959908527735621E+00
    0.60400241450697600420E+00
    0.60385031910196640403E+00
    0.60056921455566447676E+00
    0.59965935832773553660E+00
    0.59793636742308897691E+00
    0.59810882452321345593E+00
    0.59689086590136963828E+00
    0.59525094031150593832E+00
    0.59032347050792643994E+00
    0.58980429777565146487E+00
    0.59452476645309593195E+00
    0.59529216028269538175E+00
    0.59965935716293206070E+00
    0.60056921417910735794E+00
    0.60385032005049144033E+00
    0.60400241470054039095E+00
    0.60101959934059867585E+00
    0.60076045741942185607E+00
    0.59810882428748268769E+00
    0.59793636682500428403E+00
    0.58016328475200962256E+00
    0.57786199312265151828E+00
    0.56938273038772402312E+00
    0.56938273106777215204E+00
    0.57786199191059284264E+00
    0.58016328206500611397E+00
    0.58722268024453172508E+00
    0.58806697039264455018E+00
    0.59339751177506594448E+00
    0.59339751129003326380E+00
    0.58806697067491031650E+00
    0.58722268104502262087E+00
    0.58325686748040916907E+00
    0.58325686725266501220E+00
    0.60618957135342521614E+00
    0.60588931452147087864E+00
    0.60425209924070022449E+00
    0.60440333434839454974E+00
    0.60578349188301272576E+00
    0.60579194842179084901E+00
    0.60669154354972221199E+00
    0.60743140923292704425E+00
    0.60849841641052693220E+00
    0.60892356736504904546E+00
    0.60798279863000714851E+00
    0.60791020949387464256E+00
    0.60693896903908517437E+00
    0.60684260355602204218E+00
    0.60175818437884154299E+00
    0.60180823864234112008E+00
    0.60013819355767528130E+00
    0.60062053867840059507E+00
    0.60219634649260178616E+00
    0.60247387494182347289E+00
    0.60329820864864136531E+00
    0.60388300708543796169E+00
    0.60490072270438988156E+00
    0.60525497887836421373E+00
    0.60414314885726649873E+00
    0.60377936481597205276E+00
    0.60314213457852194900E+00
    0.60316087598676981774E+00
    0.59803078912735163630E+00
    0.59811448416156476338E+00
    0.59489825390537887095E+00
    0.59583207935673065947E+00
    0.59939371873217661690E+00
    0.60084086134837588755E+00
    0.60331064510232867981E+00
    0.60335456800171782810E+00
    0.60539443410786775157E+00
    0.60521027043344199914E+00
    0.60265154242731222567E+00
    0.60155859315510540331E+00
    0.60089258199257655768E+00
    0.60118314894362279155E+00
    0.59036334252823641222E+00
    0.59130049320913802280E+00
    0.58780525927903570782E+00
    0.58955330827209651012E+00
    0.59389285362662513901E+00
    0.59617385544538192832E+00
    0.59891711636359878934E+00
    0.59845580768429074148E+00
    0.60066537188866342412E+00
    0.60009746978937095196E+00
    0.59677723503256296933E+00
    0.59479511258168904497E+00
    0.59499293307209644155E+00
    0.59561894453692576512E+00
    0.59799153693921802688E+00
    0.59853950387706633673E+00
    0.59706671801962640789E+00
    0.59792366054069578940E+00
    0.59955213174747790106E+00
    0.60014759376954540659E+00
    0.60076861799086300753E+00
    0.60106008137771160804E+00
    0.60185719178291219311E+00
    0.60204765334131349341E+00
    0.60086093393760819925E+00
    0.60011736394750936352E+00
    0.60007805386041268569E+00
    0.60025568050758060235E+00
    0.59563550110672380811E+00
    0.59672225803727618754E+00
    0.59563539610436633254E+00
    0.59683307015252728966E+00
    0.59836050954946595759E+00
    0.59925933395247599211E+00
    0.59958857653145669619E+00
    0.59950553121265304224E+00
    0.59995093544775968120E+00
    0.59991492591484651964E+00
    0.59877095198896745920E+00
    0.59763861858951672357E+00
    0.59834066478145642165E+00
    0.59868850225234271356E+00
    0.58377490547242405494E+00
    0.58581201665979842907E+00
    0.58250571124891914465E+00
    0.58508100080724234626E+00
    0.58983409222314686637E+00
    0.59290257646245514422E+00
    0.59563739055244913079E+00
    0.59454262859811068953E+00
    0.59663858002623249011E+00
    0.59558390993856469287E+00
    0.59170599897346509710E+00
    0.58871327802974127152E+00
    0.59020376853357459090E+00
    0.59120900811655252571E+00
    0.57967914743890425200E+00
    0.58277948093267151197E+00
    0.58005354861511093656E+00
    0.58328318681142188318E+00
    0.58801444173860928366E+00
    0.59165851501489097330E+00
    0.59411189962659116670E+00
    0.59239446102292148133E+00
    0.59411946415653227316E+00
    0.59258533368346344439E+00
    0.58848682066667179491E+00
    0.58460906360596032183E+00
    0.58750064047172922965E+00
    0.58884054770508120757E+00
    0.58172148539879087181E+00
    0.58171815500593482273E+00
    0.57536435607551483784E+00
    0.57716387082109033013E+00
    0.58434526729590485772E+00
    0.58756970292819510338E+00
    0.59268534440619125014E+00
    0.59229364715822463427E+00
    0.59621829885829003004E+00
    0.59555836600351563792E+00
    0.59052477843248685208E+00
    0.58838966871784637025E+00
    0.58715776955381560054E+00
    0.58780205277268959829E+00
    0.56613890604664718342E+00
    0.56804068661193884981E+00
    0.56085489833785950875E+00
    0.56454615040596656250E+00
    0.57369249100545727238E+00
    0.57888456237445662378E+00
    0.58484342584609116944E+00
    0.58328969128615881790E+00
    0.58776616196124964464E+00
    0.58619361288093796425E+00
    0.57926324869623424529E+00
    0.57508249571555170032E+00
    0.57571081566336723689E+00
    0.57712909661293099184E+00
    0.55320556712896407081E+00
    0.55164446311555170865E+00
    0.53872440095817242245E+00
    0.54125354010995352372E+00
    0.55517536696353819714E+00
    0.56093466307997441600E+00
    0.57108164655399618059E+00
    0.57072090696064847748E+00
    0.57839612575967935815E+00
    0.57750590679077151712E+00
    0.56838455018710565270E+00
    0.56543913287598523976E+00
    0.56151304909649379926E+00
    0.56237326569837453594E+00
    0.51847699788917223085E+00
    0.52127494193789047916E+00
    0.50622103531311701818E+00
    0.51326525253675581162E+00
    0.53198029587402628771E+00
    0.54243986658646414778E+00
    0.55475350993112260145E+00
    0.55172504852746917514E+00
    0.56094099962509125223E+00
    0.55800973075645932120E+00
    0.54421661703767365559E+00
    0.53661091427803109255E+00
    0.53661242776494155748E+00
    0.53928457308777932866E+00
    0.55256195698763799218E+00
    0.55696626731666531995E+00
    0.55005766278107981471E+00
    0.55561122677140262205E+00
    0.56585075684626917614E+00
    0.57282155004349077920E+00
    0.57898901299892013839E+00
    0.57606098012623041527E+00
    0.58048485681892059151E+00
    0.57778830805503211820E+00
    0.56939868812376137619E+00
    0.56285460246092633430E+00
    0.56635817255355080935E+00
    0.56863612428319132430E+00
    0.54422686651353313625E+00
    0.55091547356362169374E+00
    0.54511443914120893961E+00
    0.55205301867540901295E+00
    0.56236935100892904149E+00
    0.57053570765335637205E+00
    0.57628868327610349720E+00
    0.57212723658461228649E+00
    0.57595994794402538552E+00
    0.57223778648298095906E+00
    0.56319009697506006162E+00
    0.55467226495561428035E+00
    0.56113218791902930160E+00
    0.56411959715985826591E+00
    0.48870708239931687222E+00
    0.49725647074545520354E+00
    0.48322882391233040744E+00
    0.49420527904708067002E+00
    0.51525602453850460893E+00
    0.52971923174807455936E+00
    0.54263735986705929903E+00
    0.53648061391054469027E+00
    0.54569143156752319967E+00
    0.54012319239139316984E+00
    0.52280641730886479035E+00
    0.50962343283451660980E+00
    0.51641493496682777664E+00
    0.52106331652565163193E+00
    0.47146209771053620985E+00
    0.48461800564605223007E+00
    0.47305063522494555928E+00
    0.48677222488862265104E+00
    0.50794871099964955530E+00
    0.52497250699884345781E+00
    0.53711285087265381311E+00
    0.52831085422514878491E+00
    0.53634904408390227104E+00
    0.52850722880027511952E+00
    0.50968681956201244976E+00
    0.49226602594844287575E+00
    0.50540911498696461379E+00
    0.51156815222747598071E+00
    0.60579194772538336178E+00
    0.60578348857612795975E+00
    0.60440333017866487708E+00
    0.60425209714864402955E+00
    0.60588931057143646797E+00
    0.60618956809850332856E+00
    0.60791020554120800412E+00
    0.60798279417965228610E+00
    0.60892356433805527871E+00
    0.60849841397809623089E+00
    0.60743140655700533781E+00
    0.60669154209468689753E+00
    0.60684259928948658391E+00
    0.60693896438646788294E+00
    0.60084086263651848014E+00
    0.59939371885228243109E+00
    0.59583207786351688462E+00
    0.59489825408502494675E+00
    0.59811448316628967881E+00
    0.59803078784052676742E+00
    0.60155859157753632793E+00
    0.60265154154792954788E+00
    0.60521027028883311871E+00
    0.60539443304308782068E+00
    0.60335456730076986176E+00
    0.60331064416760660229E+00
    0.60118314840976061486E+00
    0.60089258126552091976E+00
    0.60247387468296909052E+00
    0.60219634390678278280E+00
    0.60062053488942879209E+00
    0.60013819190463091324E+00
    0.60180823538016414709E+00
    0.60175818158789673440E+00
    0.60377936088660777436E+00
    0.60414314511352573689E+00
    0.60525497708888820192E+00
    0.60490072165518737890E+00
    0.60388300562277119621E+00
    0.60329820771538866797E+00
    0.60316087280860297692E+00
    0.60314213091093593633E+00
    0.59617385724602145469E+00
    0.59389285415677206537E+00
    0.58955330703794750491E+00
    0.58780525975340247591E+00
    0.59130049259042150034E+00
    0.59036334168044646287E+00
    0.59479511128470929915E+00
    0.59677723462141918365E+00
    0.60009747027403981257E+00
    0.60066537139962172809E+00
    0.59845580749471360971E+00
    0.59891711589563090268E+00
    0.59561894444255558678E+00
    0.59499293277165510307E+00
    0.58756970550339349124E+00
    0.58434526811371567678E+00
    0.57716386969372546201E+00
    0.57536435653200956875E+00
    0.58171815407963001210E+00
    0.58172148421370117877E+00
    0.58838966723108887535E+00
    0.59052477813182868704E+00
    0.59555836717892307597E+00
    0.59621829935080195018E+00
    0.59229364767994729934E+00
    0.59268534525735083740E+00
    0.58780205284140429889E+00
    0.58715776923339779714E+00
    0.56093466698454330643E+00
    0.55517536941763800939E+00
    0.54125354203134534714E+00
    0.53872440389568543306E+00
    0.55164446302122072119E+00
    0.55320556556456756958E+00
    0.56543913200929463159E+00
    0.56838455054518977061E+00
    0.57750590852709571266E+00
    0.57839612656482419784E+00
    0.57072090799187968901E+00
    0.57108164791570248386E+00
    0.56237326661139386275E+00
    0.56151304952410985294E+00
    0.57888456522200071319E+00
    0.57369249225073848386E+00
    0.56454614968329352998E+00
    0.56085489968445356723E+00
    0.56804068670634322302E+00
    0.56613890614241280108E+00
    0.57508249491236573814E+00
    0.57926324904300730001E+00
    0.58619361461618946230E+00
    0.58776616297078942974E+00
    0.58328969229657567919E+00
    0.58484342701907143791E+00
    0.57712909727293681961E+00
    0.57571081604855700586E+00
    0.54243987169006724347E+00
    0.53198030195867451742E+00
    0.51326525989152183005E+00
    0.50622104866089168151E+00
    0.52127495030155079903E+00
    0.51847700645827532462E+00
    0.53661091779020742010E+00
    0.54421662086593880492E+00
    0.55800973418819133087E+00
    0.56094100201016661167E+00
    0.55172505179091835270E+00
    0.55475351250781723689E+00
    0.53928457791005957045E+00
    0.53661243299030292331E+00
    0.60014759423111296854E+00
    0.59955212969628712827E+00
    0.59792365687648885153E+00
    0.59706671651048959237E+00
    0.59853950104027453527E+00
    0.59799153454589148993E+00
    0.60011736035452656335E+00
    0.60086093067046308924E+00
    0.60204765217020184132E+00
    0.60185719151868732890E+00
    0.60106008054773085725E+00
    0.60076861754617472133E+00
    0.60025567801613954888E+00
    0.60007805082740506286E+00
    0.59290257800418966205E+00
    0.58983409253957064244E+00
    0.58508099903117127827E+00
    0.58250571131117967472E+00
    0.58581201597813414850E+00
    0.58377490471610005152E+00
    0.58871327694428676747E+00
    0.59170599884366836818E+00
    0.59558391091020823627E+00
    0.59663857995252977950E+00
    0.59454262860707585148E+00
    0.59563739014626193580E+00
    0.59120900807839127378E+00
    0.59020376832259813238E+00
    0.59925933345862736346E+00
    0.59836050698890763666E+00
    0.59683306568374194789E+00
    0.59563539326775327698E+00
    0.59672225464874784073E+00
    0.59563549827395134706E+00
    0.59763861499378667652E+00
    0.59877094902004945887E+00
    0.59991492562415293932E+00
    0.59995093619152695119E+00
    0.59950553048955945723E+00
    0.59958857547162436319E+00
    0.59868849966927939477E+00
    0.59834066167801402969E+00
    0.59165851251257695065E+00
    0.58801443898863459125E+00
    0.58328318193212391751E+00
    0.58005354515120388648E+00
    0.58277947805452101626E+00
    0.57967914511783102949E+00
    0.58460906168506610037E+00
    0.58848681956949921990E+00
    0.59258533417709691182E+00
    0.59411946345614263798E+00
    0.59239445952384117700E+00
    0.59411189711535905555E+00
    0.58884054572643906855E+00
    0.58750063853629774790E+00
    0.57282155176345261882E+00
    0.56585075690891861733E+00
    0.55561122391488493300E+00
    0.55005766177076376167E+00
    0.55696626634591539506E+00
    0.55256195657412265909E+00
    0.56285460174063195460E+00
    0.56939868838814289287E+00
    0.57778830995369667711E+00
    0.58048485789544168600E+00
    0.57606098082967960305E+00
    0.57898901364593047258E+00
    0.56863612434510291127E+00
    0.56635817238884778035E+00
    0.52971923071862936361E+00
    0.51525602135310499818E+00
    0.49420526976030720867E+00
    0.48322881451272081677E+00
    0.49725646877850959715E+00
    0.48870708703798731998E+00
    0.50962343851645963699E+00
    0.52280642025052004307E+00
    0.54012319607315961711E+00
    0.54569143328060809583E+00
    0.53648061413950420828E+00
    0.54263735915782840280E+00