# vtk DataFile Version 3.0
LAPLACIEN  2D
ASCII
DATASET UNSTRUCTURED_GRID
 POINTS        1857  float
   3.1250000000000000E-002  0.93750000000000000        0.0000000000000000     
   6.2500000000000000E-002  0.93750000000000000        0.0000000000000000     
   6.2500000000000000E-002  0.96875000000000000        0.0000000000000000     
   1.8749999999999999E-002  0.95625000000000004        0.0000000000000000     
   4.0625000000000001E-002  0.95937499999999998        0.0000000000000000     
   4.3749999999999997E-002  0.98124999999999996        0.0000000000000000     
   2.1874999999999999E-002  0.97812500000000002        0.0000000000000000     
   9.3750000000000000E-002  0.93750000000000000        0.0000000000000000     
  0.12500000000000000       0.93750000000000000        0.0000000000000000     
  0.12500000000000000       0.96875000000000000        0.0000000000000000     
   8.1250000000000003E-002  0.95625000000000004        0.0000000000000000     
  0.10312499999999999       0.95937499999999998        0.0000000000000000     
  0.10625000000000000       0.98124999999999996        0.0000000000000000     
   8.4375000000000006E-002  0.97812500000000002        0.0000000000000000     
   3.1250000000000000E-002  0.87500000000000000        0.0000000000000000     
   6.2500000000000000E-002  0.87500000000000000        0.0000000000000000     
   6.2500000000000000E-002  0.90625000000000000        0.0000000000000000     
   1.8749999999999999E-002  0.89375000000000004        0.0000000000000000     
   4.0625000000000001E-002  0.89687499999999998        0.0000000000000000     
   4.3749999999999997E-002  0.91874999999999996        0.0000000000000000     
   2.1874999999999999E-002  0.91562500000000002        0.0000000000000000     
   9.3750000000000000E-002  0.87500000000000000        0.0000000000000000     
  0.12500000000000000       0.87500000000000000        0.0000000000000000     
  0.12500000000000000       0.90625000000000000        0.0000000000000000     
   8.1250000000000003E-002  0.89375000000000004        0.0000000000000000     
  0.10312499999999999       0.89687499999999998        0.0000000000000000     
  0.10625000000000000       0.91874999999999996        0.0000000000000000     
   8.4375000000000006E-002  0.91562500000000002        0.0000000000000000     
  0.15625000000000000       0.93750000000000000        0.0000000000000000     
  0.18750000000000000       0.93750000000000000        0.0000000000000000     
  0.18750000000000000       0.96875000000000000        0.0000000000000000     
  0.14374999999999999       0.95625000000000004        0.0000000000000000     
  0.16562499999999999       0.95937499999999998        0.0000000000000000     
  0.16875000000000001       0.98124999999999996        0.0000000000000000     
  0.14687500000000001       0.97812500000000002        0.0000000000000000     
  0.21875000000000000       0.93750000000000000        0.0000000000000000     
  0.25000000000000000       0.93750000000000000        0.0000000000000000     
  0.25000000000000000       0.96875000000000000        0.0000000000000000     
  0.20624999999999999       0.95625000000000004        0.0000000000000000     
  0.22812499999999999       0.95937499999999998        0.0000000000000000     
  0.23125000000000001       0.98124999999999996        0.0000000000000000     
  0.20937500000000001       0.97812500000000002        0.0000000000000000     
  0.15625000000000000       0.87500000000000000        0.0000000000000000     
  0.18750000000000000       0.87500000000000000        0.0000000000000000     
  0.18750000000000000       0.90625000000000000        0.0000000000000000     
  0.14374999999999999       0.89375000000000004        0.0000000000000000     
  0.16562499999999999       0.89687499999999998        0.0000000000000000     
  0.16875000000000001       0.91874999999999996        0.0000000000000000     
  0.14687500000000001       0.91562500000000002        0.0000000000000000     
  0.21875000000000000       0.87500000000000000        0.0000000000000000     
  0.25000000000000000       0.87500000000000000        0.0000000000000000     
  0.25000000000000000       0.90625000000000000        0.0000000000000000     
  0.20624999999999999       0.89375000000000004        0.0000000000000000     
  0.22812499999999999       0.89687499999999998        0.0000000000000000     
  0.23125000000000001       0.91874999999999996        0.0000000000000000     
  0.20937500000000001       0.91562500000000002        0.0000000000000000     
   3.1250000000000000E-002  0.81250000000000000        0.0000000000000000     
   6.2500000000000000E-002  0.81250000000000000        0.0000000000000000     
   6.2500000000000000E-002  0.84375000000000000        0.0000000000000000     
   1.8749999999999999E-002  0.83125000000000004        0.0000000000000000     
   4.0625000000000001E-002  0.83437499999999998        0.0000000000000000     
   4.3749999999999997E-002  0.85624999999999996        0.0000000000000000     
   2.1874999999999999E-002  0.85312500000000002        0.0000000000000000     
   9.3750000000000000E-002  0.81250000000000000        0.0000000000000000     
  0.12500000000000000       0.81250000000000000        0.0000000000000000     
  0.12500000000000000       0.84375000000000000        0.0000000000000000     
   8.1250000000000003E-002  0.83125000000000004        0.0000000000000000     
  0.10312499999999999       0.83437499999999998        0.0000000000000000     
  0.10625000000000000       0.85624999999999996        0.0000000000000000     
   8.4375000000000006E-002  0.85312500000000002        0.0000000000000000     
   3.1250000000000000E-002  0.75000000000000000        0.0000000000000000     
   6.2500000000000000E-002  0.75000000000000000        0.0000000000000000     
   6.2500000000000000E-002  0.78125000000000000        0.0000000000000000     
   1.8749999999999999E-002  0.76875000000000004        0.0000000000000000     
   4.0625000000000001E-002  0.77187499999999998        0.0000000000000000     
   4.3749999999999997E-002  0.79374999999999996        0.0000000000000000     
   2.1874999999999999E-002  0.79062500000000002        0.0000000000000000     
   9.3750000000000000E-002  0.75000000000000000        0.0000000000000000     
  0.12500000000000000       0.75000000000000000        0.0000000000000000     
  0.12500000000000000       0.78125000000000000        0.0000000000000000     
   8.1250000000000003E-002  0.76875000000000004        0.0000000000000000     
  0.10312499999999999       0.77187499999999998        0.0000000000000000     
  0.10625000000000000       0.79374999999999996        0.0000000000000000     
   8.4375000000000006E-002  0.79062500000000002        0.0000000000000000     
  0.15625000000000000       0.81250000000000000        0.0000000000000000     
  0.18750000000000000       0.81250000000000000        0.0000000000000000     
  0.18750000000000000       0.84375000000000000        0.0000000000000000     
  0.14374999999999999       0.83125000000000004        0.0000000000000000     
  0.16562499999999999       0.83437499999999998        0.0000000000000000     
  0.16875000000000001       0.85624999999999996        0.0000000000000000     
  0.14687500000000001       0.85312500000000002        0.0000000000000000     
  0.21875000000000000       0.81250000000000000        0.0000000000000000     
  0.25000000000000000       0.81250000000000000        0.0000000000000000     
  0.25000000000000000       0.84375000000000000        0.0000000000000000     
  0.20624999999999999       0.83125000000000004        0.0000000000000000     
  0.22812499999999999       0.83437499999999998        0.0000000000000000     
  0.23125000000000001       0.85624999999999996        0.0000000000000000     
  0.20937500000000001       0.85312500000000002        0.0000000000000000     
  0.15625000000000000       0.75000000000000000        0.0000000000000000     
  0.18750000000000000       0.75000000000000000        0.0000000000000000     
  0.18750000000000000       0.78125000000000000        0.0000000000000000     
  0.14374999999999999       0.76875000000000004        0.0000000000000000     
  0.16562499999999999       0.77187499999999998        0.0000000000000000     
  0.16875000000000001       0.79374999999999996        0.0000000000000000     
  0.14687500000000001       0.79062500000000002        0.0000000000000000     
  0.21875000000000000       0.75000000000000000        0.0000000000000000     
  0.25000000000000000       0.75000000000000000        0.0000000000000000     
  0.25000000000000000       0.78125000000000000        0.0000000000000000     
  0.20624999999999999       0.76875000000000004        0.0000000000000000     
  0.22812499999999999       0.77187499999999998        0.0000000000000000     
  0.23125000000000001       0.79374999999999996        0.0000000000000000     
  0.20937500000000001       0.79062500000000002        0.0000000000000000     
  0.28125000000000000       0.93750000000000000        0.0000000000000000     
  0.31250000000000000       0.93750000000000000        0.0000000000000000     
  0.31250000000000000       0.96875000000000000        0.0000000000000000     
  0.26874999999999999       0.95625000000000004        0.0000000000000000     
  0.29062500000000002       0.95937499999999998        0.0000000000000000     
  0.29375000000000001       0.98124999999999996        0.0000000000000000     
  0.27187499999999998       0.97812500000000002        0.0000000000000000     
  0.34375000000000000       0.93750000000000000        0.0000000000000000     
  0.37500000000000000       0.93750000000000000        0.0000000000000000     
  0.37500000000000000       0.96875000000000000        0.0000000000000000     
  0.33124999999999999       0.95625000000000004        0.0000000000000000     
  0.35312500000000002       0.95937499999999998        0.0000000000000000     
  0.35625000000000001       0.98124999999999996        0.0000000000000000     
[...]
 CELL_DATA        3584
 SCALARS Nutrients float
 LOOKUP_TABLE default
    0.61715891637314423956E+00
    0.61719258457629699866E+00
    0.61689237278735309378E+00
    0.61689237296434240587E+00
    0.61719258377360342038E+00
    0.61715891405661138513E+00
    0.61738967789773258055E+00
    0.61752486233531933557E+00
    0.61767268077609682742E+00
    0.61767268198434077675E+00
    0.61752486393428218658E+00
    0.61738967981355497017E+00
    0.61740846301744722879E+00
    0.61740846265055615572E+00
    0.61617310613638531791E+00
    0.61594905371627606261E+00
    0.61528176569462811329E+00
    0.61516602457968250217E+00
    0.61568119989419933802E+00
    0.61552471875998282513E+00
    0.61598904401248533169E+00
    0.61637951539173996274E+00
    0.61682488244450872639E+00
    0.61698744194565124932E+00
    0.61668355377413475171E+00
    0.61670407171937302593E+00
    0.61627276142931686209E+00
    0.61618891388046426183E+00
    0.61552472047266360011E+00
    0.61568120043080720727E+00
    0.61516602412508292197E+00
    0.61528176636220555107E+00
    0.61594905379686371028E+00
    0.61617310589384743924E+00
    0.61670407194202503387E+00
    0.61668355406470987123E+00
    0.61698744301766439424E+00
    0.61682488412927072297E+00
    0.61637951678170077585E+00
    0.61598904540484045178E+00
    0.61618891440020762129E+00
    0.61627276175922440782E+00
    0.61407066096575801950E+00
    0.61388520559448656044E+00
    0.61278267104376082930E+00
    0.61278267162038602134E+00
    0.61388520513804201162E+00
    0.61407065963362372774E+00
    0.61501224159957246229E+00
    0.61523738528043392382E+00
    0.61595570690730760965E+00
    0.61595570742677285825E+00
    0.61523738558038332247E+00
    0.61501224201896986798E+00
    0.61462934959803150470E+00
    0.61462934951744607748E+00
    0.61389696115376513053E+00
    0.61349726769417123329E+00
    0.61244657438219196610E+00
    0.61229665583370795900E+00
    0.61308378758089221439E+00
    0.61287527108256811825E+00
    0.61355565398816380718E+00
    0.61416073119873360042E+00
    0.61488773811022501281E+00
    0.61519080121829450292E+00
    0.61469253919614563753E+00
    0.61479524458345224946E+00
    0.61400056015626913730E+00
    0.61386196823089012042E+00
    0.61045423932201692274E+00
    0.61000981492569894549E+00
    0.60860787821120365670E+00
    0.60853971810484575045E+00
    0.60963276478613359632E+00
    0.60947302307358508511E+00
    0.61031421385540007840E+00
    0.61105210608000948280E+00
    0.61200554864371936592E+00
    0.61240601733965160935E+00
    0.61168581934477139761E+00
    0.61176795426870367312E+00
    0.61076326311246620371E+00
    0.61061507036355999745E+00
    0.61061757366407665160E+00
    0.61023493865879308018E+00
    0.60842941124339566805E+00
    0.60847627440382845432E+00
    0.61023341637467887200E+00
    0.61057798077547875693E+00
    0.61202202718150822136E+00
    0.61238123691301404872E+00
    0.61356372385950808113E+00
    0.61363926910141564086E+00
    0.61247707517764538032E+00
    0.61223493878233181675E+00
    0.61142798486419636106E+00
    0.61141371139018108050E+00
    0.60515662589749019684E+00
    0.60481602806020018370E+00
    0.60225072462762374581E+00
    0.60258764399423858649E+00
    0.60520240427735683131E+00
    0.60596292706630816571E+00
    0.60795201011239208277E+00
    0.60827180111732181977E+00
    0.60992647909887176549E+00
    0.60995521559129473044E+00
    0.60816618952077650118E+00
    0.60766028621801249088E+00
    0.60669805708280566403E+00
    0.60677019042911828350E+00
    0.61287527225628524175E+00
    0.61308378701121934995E+00
    0.61229665490700901920E+00
    0.61244657459322959792E+00
    0.61349726671018978141E+00
    0.61389696059047837995E+00
    0.61479524408764640864E+00
    0.61469253816970947923E+00
    0.61519080149872018559E+00
    0.61488773893296655437E+00
    0.61416073130414139403E+00
    0.61355565464040984214E+00
    0.61386196667693160300E+00
    0.61400055840890843672E+00
    0.61057798206766200622E+00
    0.61023341684595600043E+00
    0.60847627383262981038E+00
    0.60842941185132692894E+00
    0.61023493834406161707E+00
    0.61061757258645243951E+00
    0.61223493834308606587E+00
    0.61247707522416894310E+00
    0.61363926950218272705E+00
    0.61356372455292917945E+00
    0.61238123722360793266E+00
    0.61202202735640720554E+00
    0.61141371157877244524E+00
    0.61142798495805328329E+00
    0.60947302424337956861E+00
    0.60963276419438994225E+00
    0.60853971717512178596E+00
    0.60860787841280150623E+00
    0.61000981389456832016E+00
    0.61045423870456327897E+00
    0.61176795348580237377E+00
    0.61168581811781752577E+00
    0.61240601730172128381E+00
    0.61200554928408024136E+00
    0.61105210610418714268E+00
    0.61031421448089606674E+00
    0.61061506874267923450E+00
    0.61076326127778735042E+00
    0.60596292837222220928E+00
    0.60520240475826403426E+00
    0.60258764343861959123E+00
    0.60225072524830403076E+00
    0.60481602774710974124E+00
    0.60515662482653609366E+00
    0.60766028578612873989E+00
    0.60816618957406076706E+00
    0.60995521596481727666E+00
    0.60992647976699343459E+00
    0.60827180143791215183E+00
    0.60795201028782408503E+00
    0.60677019061983450410E+00
    0.60669805717652180999E+00
    0.60491286316292092184E+00
    0.60418472264595579624E+00
    0.60113138802442811492E+00
    0.60113138862669768248E+00
    0.60418472229396991136E+00
    0.60491286209091243986E+00
    0.60752779884595531357E+00
    0.60793591419123160779E+00
    0.60993131800638133999E+00
    0.60993131801523481350E+00
    0.60793591431614157905E+00
    0.60752779931400779923E+00
    0.60618393132704428972E+00
    0.60618393128633174527E+00
    0.59536154646291650216E+00
    0.59460107491299007965E+00
    0.58993193419741851713E+00
    0.59044135775352246664E+00
    0.59531750262282479014E+00
    0.59694013582578064891E+00
    0.60078695670923232264E+00
    0.60104687341071072471E+00
    0.60401742824754489636E+00
    0.60386642566218207140E+00
    0.60060051061744645917E+00
    0.59969617330760882634E+00
    0.59798335679914926821E+00
    0.59815383520469966872E+00
    0.59694013693019065681E+00
    0.59531750300613528459E+00
    0.59044135716027990046E+00
    0.58993193482495809299E+00
    0.59460107454765220858E+00
    0.59536154537700591849E+00
    0.59969617283399123675E+00
    0.60060051048761819992E+00
    0.60386642564511006093E+00
    0.60401742825525739367E+00
    0.60104687353953389906E+00
    0.60078695719247054985E+00
    0.59815383525328080783E+00
    0.59798335675722957827E+00
    0.58046393949846430971E+00
    0.57822208485738946226E+00
    0.56997027638419039963E+00
    0.56997027706091540900E+00
    0.57822208439547628789E+00
    0.58046393831186948731E+00
    0.58739153373602248642E+00
    0.58822603798819927956E+00
    0.59348582949948625043E+00
    0.59348582950084427523E+00
    0.58822603807713591539E+00
    0.58739153420192358190E+00
    0.58349885231369125194E+00
    0.58349885226080089318E+00
    0.60619414329168719302E+00
    0.60589327048960617272E+00
    0.60425748831975156783E+00
    0.60440742190589957783E+00
    0.60578617791647326740E+00
    0.60579381791499942178E+00
    0.60669334260838680972E+00
    0.60743348846053224488E+00
    0.60850043534360176434E+00
    0.60892565722755054303E+00
    0.60798534586623131926E+00
    0.60791323771607219673E+00
    0.60694183827257375263E+00
    0.60684522449330269289E+00
    0.60176617692452161190E+00
    0.60181434354337182135E+00
    0.60014718431818425692E+00
    0.60062680310645266690E+00
    0.60219971634471314292E+00
    0.60247584508998286434E+00
    0.60329975945540181836E+00
    0.60388487219477482437E+00
    0.60490233858886754970E+00
    0.60525682117359869139E+00
    0.60414609723370382710E+00
    0.60378380690900645966E+00
    0.60314562985395647754E+00
    0.60316382975528337607E+00
    0.59806770672472131523E+00
    0.59814779267736228885E+00
    0.59495075126123331266E+00
    0.59587384649417363125E+00
    0.59941620564583675268E+00
    0.60085473237112996259E+00
    0.60331840328774299920E+00
    0.60336419403603547273E+00
    0.60540047304759103675E+00
    0.60521756986971031456E+00
    0.60266572918093486155E+00
    0.60157826050319607170E+00
    0.60091163525175739224E+00
    0.60120000588507316319E+00
    0.59045203065975282453E+00
    0.59137351733051912728E+00
    0.58791498360441518667E+00
    0.58963584140550628909E+00
    0.59393689704979091282E+00
    0.59619917113808107434E+00
    0.59893092938455683161E+00
    0.59847445267538423863E+00
    0.60067690763640979590E+00
    0.60011280769558461579E+00
    0.59680894538333306709E+00
    0.59484317507435524597E+00
    0.59503332311963907930E+00
    0.59565333363721695292E+00
    0.59800466115960126956E+00
    0.59854898925755040118E+00
    0.59708053752123080304E+00
    0.59793305174290301007E+00
    0.59955716520167967598E+00
    0.60015064671117579476E+00
    0.60077090644441966116E+00
    0.60106259378423299022E+00
    0.60185902631967791443E+00
    0.60204973447822962562E+00
    0.60086506114862692218E+00
    0.60012420869376670307E+00
    0.60008313777838473424E+00
    0.60025991234743369951E+00
    0.59565380620598584738E+00
    0.59673484313020885850E+00
    0.59565251826834308968E+00
    0.59684436427007703241E+00
    0.59836689512838359128E+00
    0.59926321547139715928E+00
    0.59959178359108122880E+00
    0.59950917332587916331E+00
    0.59995383288081305384E+00
    0.59991816578622292333E+00
    0.59877694113146295862E+00
    0.59764857744781108018E+00
    0.59834761135862246650E+00
    0.59869425054007041620E+00
    0.58393892793532342633E+00
    0.58593747396994388943E+00
    0.58268461871044241462E+00
    0.58520928565317187342E+00
    0.58990319071598873446E+00
    0.59294053054064821406E+00
    0.59565873528442792040E+00
    0.59457307388291680272E+00
    0.59665804967042102014E+00
    0.59561113636973495034E+00
    0.59176282395111068357E+00
    0.58880443516828684380E+00
    0.59027237556956824172E+00
    0.59126582382641112989E+00
    0.57991437560976488719E+00
    0.58294680697209766418E+00
    0.58027685507072113147E+00
    0.58343611069081768861E+00
    0.58809856209185851217E+00
    0.59170282973969157148E+00
    0.59413814368119666209E+00
    0.59243419818203657545E+00
    0.59414659744840181421E+00
    0.59262473329547438183E+00
    0.58856757979562546179E+00
    0.58474472127185728176E+00
    0.58759220734168537970E+00
    0.58891442483370648464E+00
    0.58198188772223580223E+00
    0.58197396392166367285E+00
    0.57576224224128935703E+00
    0.57750768348395398188E+00
    0.58454166630194803744E+00
    0.58770423659046067133E+00
    0.59276026110460278140E+00
    0.59237883934611612613E+00
    0.59626857891003315348E+00
    0.59561675433011951331E+00
    0.59063747561275148357E+00
    0.58853445784930291662E+00
    0.58731348648224090958E+00
    0.58794521854627601609E+00
    0.56682521747760872266E+00
    0.56865770960696859770E+00
    0.56175538959954096629E+00
    0.56528503327421719682E+00
    0.57411967408236175281E+00
    0.57916004056628445085E+00
    0.58500207323360553513E+00
    0.58348518987185060691E+00
    0.58788912767675483018E+00
    0.58634571126200685232E+00
    0.57955352625671785471E+00
    0.57548192922140661842E+00
    0.57608420751423849993E+00
    0.57746132839315100771E+00
    0.55439095397797555353E+00
    0.55290998090874698967E+00
    0.54057138433637907937E+00
    0.54302163456098107019E+00
    0.55630739222087610685E+00
    0.56182331908197513659E+00
    0.57161125481404739812E+00
    0.57127052326042859764E+00
    0.57873148693047504754E+00
    0.57786658703511928348E+00
    0.56901238695016587155E+00
    0.56616088098648564841E+00
    0.56237987077335760411E+00
    0.56320881912542830605E+00
    0.52146469691466890151E+00
    0.52432176885772818764E+00
    0.51029896873146529668E+00
    0.51710470838661326543E+00
    0.53453582614247396876E+00
    0.54436028694077498447E+00
    0.55595644315758863119E+00
    0.55307054848702852379E+00
    0.56183117766278711791E+00
    0.55902174940253679392E+00
    0.54590807239893690550E+00
    0.53864057420708599810E+00
    0.53876797109338003811E+00
    0.54131470427761463338E+00
    0.55391526378257749386E+00
    0.55809475444189815541E+00
    0.55160469482306817568E+00
    0.55682134959352702630E+00
    0.56656222765798225360E+00
    0.57325657797921636405E+00
    0.57924951508080735341E+00
    0.57640578192784663880E+00
    0.58071492239123068124E+00
    0.57808765806522599551E+00
    0.56996312662760351131E+00
    0.56367474652198679141E+00
    0.56703976495074537301E+00
    0.56922561697510254408E+00
    0.54624067490505856526E+00
    0.55246943337833465115E+00
    0.54708989119337192442E+00
    0.55352478957156059369E+00
    0.56325745998236820267E+00
    0.57105211601325656101E+00
    0.57661433171158982258E+00
    0.57259135101779945476E+00
    0.57629221193473600948E+00
    0.57269144459155585380E+00
    0.56402809985653623581E+00
    0.55595348694364943309E+00
    0.56207508451944476757E+00
    0.56491204259050675773E+00
    0.49454215436680282192E+00
    0.50286562444368265723E+00
    0.49023135230008774155E+00
    0.50054510573542310148E+00
    0.51962010894787724613E+00
    0.53285458711794708719E+00
    0.54470666925066058006E+00
    0.53896260992508604470E+00
    0.54745574549878561754E+00
    0.54222156993996528662E+00
    0.52619897075924038088E+00
    0.51385250364515333565E+00
    0.52045562105427534139E+00
    0.52478180175279054431E+00
    0.48007202097250345485E+00
    0.49232208029660623483E+00
    0.48193206084639028663E+00
    0.49447242950062975098E+00
    0.51344421095209713535E+00
    0.52873345627652923451E+00
    0.53975186843262734637E+00
    0.53172526094396321827E+00
    0.53898237440987872837E+00
    0.53178715296907530519E+00
    0.51479929780789845939E+00
    0.49892898468548041446E+00
    0.51105474828431218803E+00
    0.51663111428068342335E+00
    0.60579381910928942201E+00
    0.60578617734981166087E+00
    0.60440742100471167575E+00
    0.60425748854740879423E+00
    0.60589326947951804847E+00
    0.60619414269294491504E+00
    0.60791323694028820412E+00
    0.60798534465259845838E+00
    0.60892565719793512180E+00
    0.60850043599766789892E+00
    0.60743348850279377249E+00
    0.60669334325573553990E+00
    0.60684522289247988525E+00
    0.60694183645671218041E+00
    0.60085473370517417102E+00
    0.59941620615864177335E+00
    0.59587384597623860305E+00
    0.59495075191696433770E+00
    0.59814779239693094404E+00
    0.59806770568644940234E+00
    0.60157826009292392211E+00
    0.60266572925847972098E+00
    0.60521757026095002185E+00
    0.60540047373449157320E+00
    0.60336419438173194418E+00
    0.60331840348934817619E+00
    0.60120000610473844915E+00
    0.60091163537439162834E+00
    0.60247584631244777142E+00
    0.60219971580630005104E+00
    0.60062680223019060399E+00
    0.60014718456987048434E+00
    0.60181434255879673323E+00
    0.60176617635246487659E+00
    0.60378380616077798049E+00
    0.60414609604753854999E+00
    0.60525682116938417376E+00
    0.60490233926839098721E+00
    0.60388487226278664277E+00
    0.60329976012965536025E+00
    0.60316382818156666357E+00
    0.60314562806505456205E+00
    0.59619917244537312673E+00
    0.59393689758239343046E+00
    0.58963584090194687271E+00
    0.58791498429335309339E+00
    0.59137351705498175658E+00
    0.59045202956330367083E+00
    0.59484317469436520653E+00
    0.59680894548868446137E+00
    0.60011280811809575297E+00
    0.60067690835376652547E+00
    0.59847445304443147585E+00
    0.59893092960115412726E+00
    0.59565333388009389370E+00
    0.59503332326369895444E+00
    0.58770423773814739477E+00
    0.58454166676383723100E+00
    0.57750768283120501589E+00
    0.57576224289667521372E+00
    0.58197396350020946798E+00
    0.58198188652675209021E+00
    0.58853445740314713763E+00
    0.59063747554275136675E+00
    0.59561675435477989815E+00
    0.59626857895632801032E+00
    0.59237883951791980852E+00
    0.59276026160106554119E+00
    0.58794521864084681173E+00
    0.58731348646909908862E+00
    0.56182332066510398683E+00
    0.55630739278234320189E+00
    0.54302163366023059599E+00
    0.54057138479644550877E+00
    0.55290998018406523062E+00
    0.55439095256286863300E+00
    0.56616088032492484228E+00
    0.56901238674413012752E+00
    0.57786658718036276738E+00
    0.57873148689255982102E+00
    0.57127052339899409006E+00
    0.57161125548753077830E+00
    0.56320881915693521425E+00
    0.56237987060031069397E+00
    0.57916004181929148231E+00
    0.57411967456831836110E+00
    0.56528503251210315828E+00
    0.56175539018922349133E+00
    0.56865770916875202357E+00
    0.56682521646071171162E+00
    0.57548192874309433975E+00
    0.57955352617689981365E+00
    0.58634571134908242129E+00
    0.58788912768246470719E+00
    0.58348518999555165632E+00
    0.58500207376580981578E+00
    0.57746132847477549266E+00
    0.57608420747927968630E+00
    0.54436028877726116981E+00
    0.53453582684921407964E+00
    0.51710470751608850204E+00
    0.51029896925053930268E+00
    0.52432176833875487887E+00
    0.52146469597838551735E+00
    0.53864057349582183942E+00
    0.54590807232458637976E+00
    0.55902175000322129605E+00
    0.56183117796188697390E+00
    0.55307054880083816872E+00
    0.55595644389535148200E+00
    0.54131470442918994124E+00
    0.53876797103389717503E+00
    0.60015064796778860856E+00
    0.59955716469694553261E+00
    0.59793305090121473544E+00
    0.59708053780387548848E+00
    0.59854898828921199172E+00
    0.59800466055979650815E+00
    0.60012420796205911966E+00
    0.60086505999035744185E+00
    0.60204973450262144752E+00
    0.60185902702822879906E+00
    0.60106259388223037821E+00
    0.60077090715067549276E+00
    0.60025991080427310020E+00
    0.60008313601783624947E+00
    0.59294053189167261753E+00
    0.58990319127866763793E+00
    0.58520928516104575579E+00
    0.58268461944111316075E+00
    0.58593747370142690301E+00
    0.58393892685064652248E+00
    0.58880443483540356731E+00
    0.59176282407101299388E+00
    0.59561113678009125483E+00
    0.59665805037239583175E+00
    0.59457307425864247552E+00
    0.59565873553128356743E+00
    0.59126582410603711892E+00
    0.59027237574771818096E+00
    0.59926321677312588410E+00
    0.59836689466829096062E+00
    0.59684436347666214306E+00
    0.59565251859861156891E+00
    0.59673484220410510925E+00
    0.59565380564753300785E+00
    0.59764857675284477345E+00
    0.59877694001098336063E+00
    0.59991816584612078778E+00
    0.59995383362594267851E+00
    0.59950917346314636092E+00
    0.59959178433937787567E+00
    0.59869424903779566716E+00
    0.59834760963837485548E+00
    0.59170283114248034551E+00
    0.58809856269506233239E+00
    0.58343611021679719908E+00
    0.58027685578886889495E+00
    0.58294680674369836471E+00
    0.57991437462054173935E+00
    0.58474472100585306311E+00
    0.58856758000272657583E+00
    0.59262473375946100873E+00
    0.59414659819551540743E+00
    0.59243419860406576483E+00
    0.59413814397732656047E+00
    0.58891442514810010689E+00
    0.58759220756410646125E+00
    0.57325657935268714560E+00
    0.56656222819056711870E+00
    0.55682134881269174098E+00
    0.55160469542226009398E+00
    0.55809475403405683913E+00
    0.55391526288906323128E+00
    0.56367474595005195859E+00
    0.56996312651453406861E+00
    0.57808765831697295212E+00
    0.58071492247951672638E+00
    0.57640578210044512986E+00
    0.57924951570730232042E+00
    0.56922561706742857979E+00
    0.56703976490334540017E+00
    0.53285458904256466361E+00
    0.51962010971889827093E+00
    0.50054510482712388786E+00
    0.49023135281912755268E+00
    0.50286562400016976415E+00
    0.49454215356568281825E+00
    0.51385250297971485356E+00
    0.52619897082987809878E+00
    0.54222157082855115817E+00
    0.54745574602306090739E+00
    0.53896261038021042733E+00
    0.54470667004623507523E+00