# vtk DataFile Version 3.0
LAPLACIEN  2D
ASCII
DATASET UNSTRUCTURED_GRID
 POINTS        1857  float
   3.1250000000000000E-002  0.93750000000000000        0.0000000000000000     
   6.2500000000000000E-002  0.93750000000000000        0.0000000000000000     
   6.2500000000000000E-002  0.96875000000000000        0.0000000000000000     
   1.8749999999999999E-002  0.95625000000000004        0.0000000000000000     
   4.0625000000000001E-002  0.95937499999999998        0.0000000000000000     
   4.3749999999999997E-002  0.98124999999999996        0.0000000000000000     
   2.1874999999999999E-002  0.97812500000000002        0.0000000000000000     
   9.3750000000000000E-002  0.93750000000000000        0.0000000000000000     
  0.12500000000000000       0.93750000000000000        0.0000000000000000     
  0.12500000000000000       0.96875000000000000        0.0000000000000000     
   8.1250000000000003E-002  0.95625000000000004        0.0000000000000000     
  0.10312499999999999       0.95937499999999998        0.0000000000000000     
  0.10625000000000000       0.98124999999999996        0.0000000000000000     
   8.4375000000000006E-002  0.97812500000000002        0.0000000000000000     
   3.1250000000000000E-002  0.87500000000000000        0.0000000000000000     
   6.2500000000000000E-002  0.87500000000000000        0.0000000000000000     
   6.2500000000000000E-002  0.90625000000000000        0.0000000000000000     
   1.8749999999999999E-002  0.89375000000000004        0.0000000000000000     
   4.0625000000000001E-002  0.89687499999999998        0.0000000000000000     
   4.3749999999999997E-002  0.91874999999999996        0.0000000000000000     
   2.1874999999999999E-002  0.91562500000000002        0.0000000000000000     
   9.3750000000000000E-002  0.87500000000000000        0.0000000000000000     
  0.12500000000000000       0.87500000000000000        0.0000000000000000     
  0.12500000000000000       0.90625000000000000        0.0000000000000000     
   8.1250000000000003E-002  0.89375000000000004        0.0000000000000000     
  0.10312499999999999       0.89687499999999998        0.0000000000000000     
  0.10625000000000000       0.91874999999999996        0.0000000000000000     
   8.4375000000000006E-002  0.91562500000000002        0.0000000000000000     
  0.15625000000000000       0.93750000000000000        0.0000000000000000     
  0.18750000000000000       0.93750000000000000        0.0000000000000000     
  0.18750000000000000       0.96875000000000000        0.0000000000000000     
  0.14374999999999999       0.95625000000000004        0.0000000000000000     
  0.16562499999999999       0.95937499999999998        0.0000000000000000     
  0.16875000000000001       0.98124999999999996        0.0000000000000000     
  0.14687500000000001       0.97812500000000002        0.0000000000000000     
  0.21875000000000000       0.93750000000000000        0.0000000000000000     
  0.25000000000000000       0.93750000000000000        0.0000000000000000     
  0.25000000000000000       0.96875000000000000        0.0000000000000000     
  0.20624999999999999       0.95625000000000004        0.0000000000000000     
  0.22812499999999999       0.95937499999999998        0.0000000000000000     
  0.23125000000000001       0.98124999999999996        0.0000000000000000     
  0.20937500000000001       0.97812500000000002        0.0000000000000000     
  0.15625000000000000       0.87500000000000000        0.0000000000000000     
  0.18750000000000000       0.87500000000000000        0.0000000000000000     
  0.18750000000000000       0.90625000000000000        0.0000000000000000     
  0.14374999999999999       0.89375000000000004        0.0000000000000000     
  0.16562499999999999       0.89687499999999998        0.0000000000000000     
  0.16875000000000001       0.91874999999999996        0.0000000000000000     
  0.14687500000000001       0.91562500000000002        0.0000000000000000     
  0.21875000000000000       0.87500000000000000        0.0000000000000000     
  0.25000000000000000       0.87500000000000000        0.0000000000000000     
  0.25000000000000000       0.90625000000000000        0.0000000000000000     
  0.20624999999999999       0.89375000000000004        0.0000000000000000     
  0.22812499999999999       0.89687499999999998        0.0000000000000000     
  0.23125000000000001       0.91874999999999996        0.0000000000000000     
  0.20937500000000001       0.91562500000000002        0.0000000000000000     
   3.1250000000000000E-002  0.81250000000000000        0.0000000000000000     
   6.2500000000000000E-002  0.81250000000000000        0.0000000000000000     
   6.2500000000000000E-002  0.84375000000000000        0.0000000000000000     
   1.8749999999999999E-002  0.83125000000000004        0.0000000000000000     
   4.0625000000000001E-002  0.83437499999999998        0.0000000000000000     
   4.3749999999999997E-002  0.85624999999999996        0.0000000000000000     
   2.1874999999999999E-002  0.85312500000000002        0.0000000000000000     
   9.3750000000000000E-002  0.81250000000000000        0.0000000000000000     
  0.12500000000000000       0.81250000000000000        0.0000000000000000     
  0.12500000000000000       0.84375000000000000        0.0000000000000000     
   8.1250000000000003E-002  0.83125000000000004        0.0000000000000000     
  0.10312499999999999       0.83437499999999998        0.0000000000000000     
  0.10625000000000000       0.85624999999999996        0.0000000000000000     
   8.4375000000000006E-002  0.85312500000000002        0.0000000000000000     
   3.1250000000000000E-002  0.75000000000000000        0.0000000000000000     
   6.2500000000000000E-002  0.75000000000000000        0.0000000000000000     
   6.2500000000000000E-002  0.78125000000000000        0.0000000000000000     
   1.8749999999999999E-002  0.76875000000000004        0.0000000000000000     
   4.0625000000000001E-002  0.77187499999999998        0.0000000000000000     
   4.3749999999999997E-002  0.79374999999999996        0.0000000000000000     
   2.1874999999999999E-002  0.79062500000000002        0.0000000000000000     
   9.3750000000000000E-002  0.75000000000000000        0.0000000000000000     
  0.12500000000000000       0.75000000000000000        0.0000000000000000     
  0.12500000000000000       0.78125000000000000        0.0000000000000000     
   8.1250000000000003E-002  0.76875000000000004        0.0000000000000000     
  0.10312499999999999       0.77187499999999998        0.0000000000000000     
  0.10625000000000000       0.79374999999999996        0.0000000000000000     
   8.4375000000000006E-002  0.79062500000000002        0.0000000000000000     
  0.15625000000000000       0.81250000000000000        0.0000000000000000     
  0.18750000000000000       0.81250000000000000        0.0000000000000000     
  0.18750000000000000       0.84375000000000000        0.0000000000000000     
  0.14374999999999999       0.83125000000000004        0.0000000000000000     
  0.16562499999999999       0.83437499999999998        0.0000000000000000     
  0.16875000000000001       0.85624999999999996        0.0000000000000000     
  0.14687500000000001       0.85312500000000002        0.0000000000000000     
  0.21875000000000000       0.81250000000000000        0.0000000000000000     
  0.25000000000000000       0.81250000000000000        0.0000000000000000     
  0.25000000000000000       0.84375000000000000        0.0000000000000000     
  0.20624999999999999       0.83125000000000004        0.0000000000000000     
  0.22812499999999999       0.83437499999999998        0.0000000000000000     
  0.23125000000000001       0.85624999999999996        0.0000000000000000     
  0.20937500000000001       0.85312500000000002        0.0000000000000000     
  0.15625000000000000       0.75000000000000000        0.0000000000000000     
  0.18750000000000000       0.75000000000000000        0.0000000000000000     
  0.18750000000000000       0.78125000000000000        0.0000000000000000     
  0.14374999999999999       0.76875000000000004        0.0000000000000000     
  0.16562499999999999       0.77187499999999998        0.0000000000000000     
  0.16875000000000001       0.79374999999999996        0.0000000000000000     
  0.14687500000000001       0.79062500000000002        0.0000000000000000     
  0.21875000000000000       0.75000000000000000        0.0000000000000000     
  0.25000000000000000       0.75000000000000000        0.0000000000000000     
  0.25000000000000000       0.78125000000000000        0.0000000000000000     
  0.20624999999999999       0.76875000000000004        0.0000000000000000     
  0.22812499999999999       0.77187499999999998        0.0000000000000000     
  0.23125000000000001       0.79374999999999996        0.0000000000000000     
  0.20937500000000001       0.79062500000000002        0.0000000000000000     
  0.28125000000000000       0.93750000000000000        0.0000000000000000     
  0.31250000000000000       0.93750000000000000        0.0000000000000000     
  0.31250000000000000       0.96875000000000000        0.0000000000000000     
  0.26874999999999999       0.95625000000000004        0.0000000000000000     
  0.29062500000000002       0.95937499999999998        0.0000000000000000     
  0.29375000000000001       0.98124999999999996        0.0000000000000000     
  0.27187499999999998       0.97812500000000002        0.0000000000000000     
  0.34375000000000000       0.93750000000000000        0.0000000000000000     
  0.37500000000000000       0.93750000000000000        0.0000000000000000     
  0.37500000000000000       0.96875000000000000        0.0000000000000000     
  0.33124999999999999       0.95625000000000004        0.0000000000000000     
  0.35312500000000002       0.95937499999999998        0.0000000000000000     
  0.35625000000000001       0.98124999999999996        0.0000000000000000     
[...]
 CELL_DATA        3584
 SCALARS Nutrients float
 LOOKUP_TABLE default
    0.61715794757808017934E+00
    0.61719161335362060505E+00
    0.61689142341525959878E+00
    0.61689142395727869506E+00
    0.61719161317670268030E+00
    0.61715794653941224990E+00
    0.61738866231285827180E+00
    0.61752382048327292274E+00
    0.61767157292219843079E+00
    0.61767157357325652711E+00
    0.61752382101572744766E+00
    0.61738866270893721921E+00
    0.61740749863195687475E+00
    0.61740749853452836504E+00
    0.61617232276587419193E+00
    0.61594837321927353724E+00
    0.61528121759646270394E+00
    0.61516555514729320819E+00
    0.61568068352392246734E+00
    0.61552433184672017408E+00
    0.61598849399803945470E+00
    0.61637882446714908902E+00
    0.61682403551441544742E+00
    0.61698652424455047161E+00
    0.61668271610170433128E+00
    0.61670316845073291923E+00
    0.61627209252184578236E+00
    0.61618829060811264320E+00
    0.61552433284139340675E+00
    0.61568068362287009521E+00
    0.61516555458633059850E+00
    0.61528121795429746577E+00
    0.61594837257104906314E+00
    0.61617232146723976971E+00
    0.61670316797160584787E+00
    0.61668271579698563656E+00
    0.61698652424113731296E+00
    0.61682403599172586084E+00
    0.61637882480309513777E+00
    0.61598849431595037451E+00
    0.61618829051926404805E+00
    0.61627209226961932043E+00
    0.61407036451358620877E+00
    0.61388498270908764542E+00
    0.61278262262097016322E+00
    0.61278262300271924001E+00
    0.61388498220122933446E+00
    0.61407036338137743758E+00
    0.61501174002964742460E+00
    0.61523686064609461877E+00
    0.61595497235774776534E+00
    0.61595497214974581635E+00
    0.61523686049459791469E+00
    0.61501174022193405566E+00
    0.61462902990496037781E+00
    0.61462902988364920276E+00
    0.61389681143559438059E+00
    0.61349741848463379412E+00
    0.61244695564334705740E+00
    0.61229725075158714098E+00
    0.61308439109384316179E+00
    0.61287612286294423924E+00
    0.61355631542665556299E+00
    0.61416106166976669467E+00
    0.61488771176527856621E+00
    0.61519057028194945591E+00
    0.61469242354763309333E+00
    0.61479490167238937115E+00
    0.61400078910119482156E+00
    0.61386233224329500580E+00
    0.61045506992009646030E+00
    0.61001085486922246304E+00
    0.60860887959633624966E+00
    0.60854072647443879784E+00
    0.60963390399775285733E+00
    0.60947411260046813197E+00
    0.61031541794704402548E+00
    0.61105333039131803918E+00
    0.61200669364869642042E+00
    0.61240701809179853843E+00
    0.61168683275160584678E+00
    0.61176869782007703424E+00
    0.61076444732314338903E+00
    0.61061630058430715895E+00
    0.61061776467681327940E+00
    0.61023519603011799894E+00
    0.60842972948008189338E+00
    0.60847666561866287083E+00
    0.61023379800224997194E+00
    0.61057847743131599128E+00
    0.61202237612065069072E+00
    0.61238138479645609635E+00
    0.61356359244701985656E+00
    0.61363906991511096845E+00
    0.61247709582543263807E+00
    0.61223496291306744865E+00
    0.61142822175977029620E+00
    0.61141398409814540216E+00
    0.60515704676914394700E+00
    0.60481663616770797720E+00
    0.60225129834114987659E+00
    0.60258827646618995377E+00
    0.60520318784046678307E+00
    0.60596374634307348384E+00
    0.60795295571168950222E+00
    0.60827267563026254926E+00
    0.60992725434904127013E+00
    0.60995583176321832575E+00
    0.60816682433571489508E+00
    0.60766073381514618124E+00
    0.60669883809064051317E+00
    0.60677103373397600627E+00
    0.61287612385692158412E+00
    0.61308439118762592113E+00
    0.61229725018590974717E+00
    0.61244695598759868460E+00
    0.61349741780591993123E+00
    0.61389681008057062073E+00
    0.61479490114583146276E+00
    0.61469242321594685929E+00
    0.61519057025124290750E+00
    0.61488771222741944733E+00
    0.61416106199425368750E+00
    0.61355631574048119514E+00
    0.61386233214033281147E+00
    0.61400078882863828866E+00
    0.61057847855764413314E+00
    0.61023379849876580039E+00
    0.60847666523303567399E+00
    0.60842972985620413784E+00
    0.61023519552167904134E+00
    0.61061776356670283139E+00
    0.61223496270469590641E+00
    0.61247709593730081945E+00
    0.61363907000519613000E+00
    0.61356359216384137589E+00
    0.61238138460477631320E+00
    0.61202237629712130662E+00
    0.61141398409444247530E+00
    0.61142822171488386829E+00
    0.60947411361209724578E+00
    0.60963390410625828419E+00
    0.60854072592426544652E+00
    0.60860887995399548522E+00
    0.61001085419860379133E+00
    0.61045506856934761419E+00
    0.61176869729352645333E+00
    0.61168683242425425650E+00
    0.61240701806289132847E+00
    0.61200669411513786144E+00
    0.61105333072415390916E+00
    0.61031541827416280199E+00
    0.61061630049102333384E+00
    0.61076444705872512397E+00
    0.60596374748956682854E+00
    0.60520318835411002212E+00
    0.60258827610119380935E+00
    0.60225129873708582728E+00
    0.60481663567064947173E+00
    0.60515704566639239026E+00
    0.60766073360760319844E+00
    0.60816682445142700164E+00
    0.60995583185268431592E+00
    0.60992725407012915451E+00
    0.60827267544767449348E+00
    0.60795295590232345528E+00
    0.60677103374156204918E+00
    0.60669883805545288258E+00
    0.60491309657656233689E+00
    0.60418490774130850784E+00
    0.60113148023540496911E+00
    0.60113148061440369041E+00
    0.60418490724073725673E+00
    0.60491309546785698714E+00
    0.60752808870102070760E+00
    0.60793619962353440123E+00
    0.60993154906068636212E+00
    0.60993154893436840602E+00
    0.60793619948435884126E+00
    0.60752808890026799293E+00
    0.60618422823591411319E+00
    0.60618422821386741539E+00
    0.59536240864661860162E+00
    0.59460224244290027507E+00
    0.58993488549238148888E+00
    0.59044377131905934064E+00
    0.59531852282098618456E+00
    0.59694083981980805564E+00
    0.60078750064163266575E+00
    0.60104732000034311046E+00
    0.60401778118983973087E+00
    0.60386668139958565860E+00
    0.60060078450528175953E+00
    0.59969638517404288969E+00
    0.59798393710100794518E+00
    0.59815442623847636661E+00
    0.59694084095898625186E+00
    0.59531852334898649470E+00
    0.59044377096964806295E+00
    0.58993488589869580441E+00
    0.59460224195815070125E+00
    0.59536240754747560278E+00
    0.59969638497782362663E+00
    0.60060078465391097957E+00
    0.60386668152955436106E+00
    0.60401778107192438672E+00
    0.60104731987565407358E+00
    0.60078750086217191928E+00
    0.59815442627857873248E+00
    0.59798393709459751744E+00
    0.58047735001869527061E+00
    0.57824136716176033346E+00
    0.57001219568261407566E+00
    0.57001219605833497450E+00
    0.57824136664476266656E+00
    0.58047734888035584788E+00
    0.58739667146894858352E+00
    0.58823080960906592995E+00
    0.59348731234427720693E+00
    0.59348731222412154374E+00
    0.58823080947667172325E+00
    0.58739667169305431749E+00
    0.58350878023113705861E+00
    0.58350878020571150806E+00
    0.60619487979919906007E+00
    0.60589384051709882506E+00
    0.60425773415374040010E+00
    0.60440751574757711762E+00
    0.60578648048064287490E+00
    0.60579395462923257831E+00
    0.60669373461258002678E+00
    0.60743414868976619569E+00
    0.60850133787570648281E+00
    0.60892665509996213302E+00
    0.60798623699946030552E+00
    0.60791416618521620929E+00
    0.60694255127752660961E+00
    0.60684586376913973726E+00
    0.60176587905823342162E+00
    0.60181384344308830325E+00
    0.60014645554181844656E+00
    0.60062599444160136297E+00
    0.60219902909153777415E+00
    0.60247510444502150317E+00
    0.60329914544609530846E+00
    0.60388445620253150548E+00
    0.60490216931026508096E+00
    0.60525678856116160720E+00
    0.60414591662838845743E+00
    0.60378373267516538547E+00
    0.60314524420979154229E+00
    0.60316338219543574883E+00
    0.59806829805592720550E+00
    0.59814829528948354476E+00
    0.59495122917022835729E+00
    0.59587408241682227050E+00
    0.59941645512404162499E+00
    0.60085476571996765394E+00
    0.60331863916026828853E+00
    0.60336468539066012706E+00
    0.60540117452726249780E+00
    0.60521832551489229690E+00
    0.60266637896087082993E+00
    0.60157887701699552796E+00
    0.60091219247706484374E+00
    0.60120050377856515400E+00
    0.59045257594379252364E+00
    0.59137365826643950584E+00
    0.58791540931321883967E+00
    0.58963579272862431946E+00
    0.59393652962697152109E+00
    0.59619852115996418984E+00
    0.59893024382391479854E+00
    0.59847402610000033363E+00
    0.60067662475974059610E+00
    0.60011269685484502912E+00
    0.59680887973645757594E+00
    0.59484335591296166879E+00
    0.59503319216880912190E+00
    0.59565307923666233059E+00
    0.59800389219080662961E+00
    0.59854835793541949496E+00
    0.59708008751069452380E+00
    0.59793274022523279498E+00
    0.59955680512103359803E+00
    0.60015047035655588736E+00
    0.60077053312261685658E+00
    0.60106202306718148343E+00
    0.60185829424134307253E+00
    0.60204896435748678218E+00
    0.60086430124798173580E+00
    0.60012337893884859508E+00
    0.60008254069714450640E+00
    0.60025938494769504050E+00
    0.59565380554896463217E+00
    0.59673509654225131982E+00
    0.59565283293398296749E+00
    0.59684479396611311852E+00
    0.59836745686658898702E+00
    0.59926390822095154665E+00
    0.59959245459356469432E+00
    0.59950964643910997776E+00
    0.59995403240226974351E+00
    0.59991816388687257966E+00
    0.59877703518615899014E+00
    0.59764841591752204675E+00
    0.59834799539633265475E+00
    0.59869473811486084713E+00
    0.58393977753736614478E+00
    0.58593781875379857826E+00
    0.58268552008020579880E+00
    0.58520966639754845584E+00
    0.58990311633608794040E+00
    0.59294033356135078527E+00
    0.59565831252889056557E+00
    0.59457258487352582232E+00
    0.59665732967526752262E+00
    0.59561047591646720800E+00
    0.59176247419182581577E+00
    0.58880442528527010548E+00
    0.59027222782365462717E+00
    0.59126560239561343213E+00
    0.57991577273990368990E+00
    0.58294760273125301175E+00
    0.58027806579049434621E+00
    0.58343674738689943471E+00
    0.58809889045430019383E+00
    0.59170305735453143647E+00
    0.59413839858149897211E+00
    0.59243436627669254779E+00
    0.59414658734561898168E+00
    0.59262464573550188707E+00
    0.58856776225509266354E+00
    0.58474518656153617879E+00
    0.58759257515617202561E+00
    0.58891473109438075006E+00
    0.58199130148863431611E+00
    0.58198206730924184615E+00
    0.57577786676557562995E+00
    0.57751822780238937227E+00
    0.58454601150049312341E+00
    0.58770612909341846120E+00
    0.59276108664231685896E+00
    0.59238009958357562557E+00
    0.59626928916806465342E+00
    0.59561760989238110575E+00
    0.59063966957797797708E+00
    0.58853798411922253475E+00
    0.58731698181320601826E+00
    0.58794806666990184763E+00
    0.56685439380027691225E+00
    0.56867769072888629811E+00
    0.56178759718014115165E+00
    0.56530478430528996459E+00
    0.57412816930893417755E+00
    0.57916341785880554038E+00
    0.58500333832417827917E+00
    0.58348769965843327867E+00
    0.58789029734941289362E+00
    0.58634783639209919759E+00
    0.57956003059135974276E+00
    0.57549454851301851122E+00
    0.57609278589833523565E+00
    0.57746775825006946281E+00
    0.55452267321620285490E+00
    0.55304771367013150218E+00
    0.54081599510036870715E+00
    0.54322176927795717827E+00
    0.55640632524570698969E+00
    0.56188050943971434847E+00
    0.57163763142418688723E+00
    0.57130280952010947804E+00
    0.57874632851038143588E+00
    0.57788451976300936330E+00
    0.56905756651107297639E+00
    0.56622050324160089207E+00
    0.56245211834266872764E+00
    0.56327366149767865711E+00
    0.52191156973188612689E+00
    0.52468023054206336386E+00
    0.51081569222524580987E+00
    0.51748140145765253450E+00
    0.53473362980460814597E+00
    0.54446330293703626424E+00
    0.55601028531057539173E+00
    0.55315033145350966937E+00
    0.56187732488417962973E+00
    0.55908712263806614740E+00
    0.54605849475223455780E+00
    0.53887762571632169539E+00
    0.53895954179968652564E+00
    0.54147291668937291842E+00
    0.55395932909847178660E+00
    0.55812217544228281962E+00
    0.55164478918745396552E+00
    0.55684516101336845040E+00
    0.56657295017141995341E+00
    0.57326098889080390197E+00
    0.57925146990540465897E+00
    0.57640943973977798453E+00
    0.58071680376765322240E+00
    0.57809121423220999336E+00
    0.56997339850380945858E+00
    0.56369582559338837768E+00
    0.56705187314552230049E+00
    0.56923449611040366491E+00
    0.54628982133811732069E+00
    0.55249914540112932126E+00
    0.54713228759814358515E+00
    0.55354957398922544076E+00
    0.56326875225800021596E+00
    0.57105676810443617430E+00
    0.57661660524708080455E+00
    0.57259555533102923786E+00
    0.57629473296056488163E+00
    0.57269591868337810237E+00
    0.56403988602265631158E+00
    0.55597787348772809146E+00
    0.56208835979434401686E+00
    0.56492172522784833699E+00
    0.49521854029335549141E+00
    0.50335594390211169102E+00
    0.49088485630906758539E+00
    0.50100335506819415610E+00
    0.51986397305590359430E+00
    0.53297667217291178066E+00
    0.54477344561480234297E+00
    0.53906941470469726951E+00
    0.54752549974001762934E+00
    0.54232850690741951638E+00
    0.52643127231089847928E+00
    0.51425033084143145778E+00
    0.52071932767794060215E+00
    0.52499207798494484933E+00
    0.48086548184000160733E+00
    0.49287832761730604458E+00
    0.48266055000948193676E+00
    0.49496950416245821813E+00
    0.51370794679784714809E+00
    0.52886219199757322773E+00
    0.53982284041566230837E+00
    0.53184209476415644779E+00
    0.53906055265519603470E+00
    0.53191034805892523085E+00
    0.51506621354445547567E+00
    0.49940041964778342232E+00
    0.51135020566035926937E+00
    0.51686321069211527135E+00
    0.60579395566613003510E+00
    0.60578648061597906160E+00
    0.60440751522740487900E+00
    0.60425773453895337273E+00
    0.60589383986983225139E+00
    0.60619487847082909049E+00
    0.60791416567699219087E+00
    0.60798623669351614662E+00
    0.60892665509190535555E+00
    0.60850133836314390656E+00
    0.60743414904437353918E+00
    0.60669373496313427907E+00
    0.60684586369929216509E+00
    0.60694255103598127032E+00
    0.60085476689701178277E+00
    0.59941645567071122347E+00
    0.59587408209198100550E+00
    0.59495122960521640287E+00
    0.59814829482392306570E+00
    0.59806829698453634059E+00
    0.60157887683365318665E+00
    0.60266637910220555163E+00
    0.60521832562849331438E+00
    0.60540117427238326897E+00
    0.60336468523388231411E+00
    0.60331863937871310632E+00
    0.60120050381504908099E+00
    0.60091219247052563013E+00
    0.60247510550978689015E+00
    0.60219902925547286188E+00
    0.60062599395061255780E+00
    0.60014645595608706596E+00
    0.60181384282345284920E+00
    0.60176587775937029345E+00
    0.60378373219628289625E+00
    0.60414591635047321105E+00
    0.60525678857883158379E+00
    0.60490216982312083882E+00
    0.60388445658265765825E+00
    0.60329914582317345495E+00
    0.60316338215270282053E+00
    0.60314524399558711032E+00
    0.59619852236899917308E+00
    0.59393653020738146342E+00
    0.58963579244068542451E+00
    0.58791540978723622057E+00
    0.59137365783688655707E+00
    0.59045257491270153327E+00
    0.59484335576843028193E+00
    0.59680887991203468435E+00
    0.60011269699955760437E+00
    0.60067662453538916978E+00
    0.59847402597319598883E+00
    0.59893024407218897753E+00
    0.59565307930590438712E+00
    0.59503319219598493905E+00
    0.58770613027741580581E+00
    0.58454601207904799409E+00
    0.57751822751125547750E+00
    0.57577786722717516632E+00
    0.58198206686869580206E+00
    0.58199130043272218060E+00
    0.58853798395787482178E+00
    0.59063966976627590988E+00
    0.59561761005830249349E+00
    0.59626928908492404791E+00
    0.59238009949623804395E+00
    0.59276108690281281710E+00
    0.58794806675292610176E+00
    0.58731698184912783933E+00
    0.56188051063964916665E+00
    0.55640632583418381252E+00
    0.54322176899330010258E+00
    0.54081599556236759074E+00
    0.55304771320862688988E+00
    0.55452267212448302924E+00
    0.56622050305562421357E+00
    0.56905756669338447562E+00
    0.57788451993036604737E+00
    0.57874632843724072018E+00
    0.57130280943635858293E+00
    0.57163763170329684460E+00
    0.56327366157887304166E+00
    0.56245211837086239726E+00
    0.57916341908632607005E+00
    0.57412816993566229140E+00
    0.56530478406343764863E+00
    0.56178759769390473888E+00
    0.56867769033686654812E+00
    0.56685439279993421469E+00
    0.57549454840752656271E+00
    0.57956003083094420614E+00
    0.58634783660324329979E+00
    0.58789029730916797511E+00
    0.58348769961239521642E+00
    0.58500333862509712457E+00
    0.57746775837924846364E+00
    0.57609278598191748788E+00
    0.54446330419572108728E+00
    0.53473363047656130576E+00
    0.51748140126534381000E+00
    0.51081569281501637558E+00
    0.52468023017658693696E+00
    0.52191156877759670163E+00
    0.53887762562849916836E+00
    0.54605849501342063057E+00
    0.55908712286823392112E+00
    0.56187732487012231886E+00
    0.55315033142545932954E+00
    0.55601028564315357894E+00
    0.54147291684029741354E+00
    0.53895954190230432879E+00
    0.60015047145503330750E+00
    0.59955680531845312320E+00
    0.59793273976906702316E+00
    0.59708008795884415232E+00
    0.59854835734698197403E+00
    0.59800389092335626273E+00
    0.60012337848976371468E+00
    0.60086430100023768830E+00
    0.60204896440359290111E+00
    0.60185829478283903171E+00
    0.60106202347698201027E+00
    0.60077053353126086410E+00
    0.60025938493598662848E+00
    0.60008254051370224502E+00
    0.59294033480838670425E+00
    0.58990311695470187825E+00
    0.58520966615120084686E+00
    0.58268552059606959492E+00
    0.58593781836205860447E+00
    0.58393977654602369221E+00
    0.58880442517777953348E+00
    0.59176247440235330011E+00
    0.59561047609375616929E+00
    0.59665732948339600394E+00
    0.59457258478006669300E+00
    0.59565831281179859591E+00
    0.59126560250057369483E+00
    0.59027222788672728537E+00
    0.59926390936387530228E+00
    0.59836745710791217068E+00
    0.59684479355710162718E+00
    0.59565283342834940417E+00
    0.59673509599510921042E+00
    0.59565380432113557152E+00
    0.59764841550479641530E+00
    0.59877703497574419345E+00
    0.59991816396801644906E+00
    0.59995403297984173374E+00
    0.59950964688762609089E+00
    0.59959245504364688806E+00
    0.59869473814345319784E+00
    0.59834799525260551345E+00
    0.59170305865692307545E+00
    0.58809889112680613366E+00
    0.58343674720015481494E+00
    0.58027806636288936648E+00
    0.58294760238905019012E+00
    0.57991577179604381076E+00
    0.58474518649722817543E+00
    0.58856776250880837864E+00
    0.59262464595253994126E+00
    0.59414658719453417035E+00
    0.59243436622813427928E+00
    0.59413839891239939028E+00
    0.58891473124731130717E+00
    0.58759257526632280300E+00
    0.57326099016494080907E+00
    0.56657295084613057412E+00
    0.55684516082029122952E+00
    0.55164478974977260162E+00
    0.55812217509527140002E+00
    0.55395932814721093873E+00
    0.56369582553636810029E+00
    0.56997339879071162727E+00
    0.57809121448690148348E+00
    0.58071680376941581248E+00
    0.57640943973539771061E+00
    0.57925147024911893823E+00
    0.56923449628450195625E+00
    0.56705187327440509382E+00
    0.53297667348753186012E+00
    0.51986397379708781941E+00
    0.50100335490108993675E+00
    0.49088485690443189879E+00
    0.50335594354518953253E+00
    0.49521853934523002438E+00
    0.51425033085256210974E+00
    0.52643127264734113080E+00
    0.54232850719433212117E+00
    0.54752549977819109372E+00
    0.53906941472767078150E+00
    0.54477344599643351408E+00