# vtk DataFile Version 3.0
LAPLACIEN  2D
ASCII
DATASET UNSTRUCTURED_GRID
 POINTS        1857  float
   3.1250000000000000E-002  0.93750000000000000        0.0000000000000000     
   6.2500000000000000E-002  0.93750000000000000        0.0000000000000000     
   6.2500000000000000E-002  0.96875000000000000        0.0000000000000000     
   1.8749999999999999E-002  0.95625000000000004        0.0000000000000000     
   4.0625000000000001E-002  0.95937499999999998        0.0000000000000000     
   4.3749999999999997E-002  0.98124999999999996        0.0000000000000000     
   2.1874999999999999E-002  0.97812500000000002        0.0000000000000000     
   9.3750000000000000E-002  0.93750000000000000        0.0000000000000000     
  0.12500000000000000       0.93750000000000000        0.0000000000000000     
  0.12500000000000000       0.96875000000000000        0.0000000000000000     
   8.1250000000000003E-002  0.95625000000000004        0.0000000000000000     
  0.10312499999999999       0.95937499999999998        0.0000000000000000     
  0.10625000000000000       0.98124999999999996        0.0000000000000000     
   8.4375000000000006E-002  0.97812500000000002        0.0000000000000000     
   3.1250000000000000E-002  0.87500000000000000        0.0000000000000000     
   6.2500000000000000E-002  0.87500000000000000        0.0000000000000000     
   6.2500000000000000E-002  0.90625000000000000        0.0000000000000000     
   1.8749999999999999E-002  0.89375000000000004        0.0000000000000000     
   4.0625000000000001E-002  0.89687499999999998        0.0000000000000000     
   4.3749999999999997E-002  0.91874999999999996        0.0000000000000000     
   2.1874999999999999E-002  0.91562500000000002        0.0000000000000000     
   9.3750000000000000E-002  0.87500000000000000        0.0000000000000000     
  0.12500000000000000       0.87500000000000000        0.0000000000000000     
  0.12500000000000000       0.90625000000000000        0.0000000000000000     
   8.1250000000000003E-002  0.89375000000000004        0.0000000000000000     
  0.10312499999999999       0.89687499999999998        0.0000000000000000     
  0.10625000000000000       0.91874999999999996        0.0000000000000000     
   8.4375000000000006E-002  0.91562500000000002        0.0000000000000000     
  0.15625000000000000       0.93750000000000000        0.0000000000000000     
  0.18750000000000000       0.93750000000000000        0.0000000000000000     
  0.18750000000000000       0.96875000000000000        0.0000000000000000     
  0.14374999999999999       0.95625000000000004        0.0000000000000000     
  0.16562499999999999       0.95937499999999998        0.0000000000000000     
  0.16875000000000001       0.98124999999999996        0.0000000000000000     
  0.14687500000000001       0.97812500000000002        0.0000000000000000     
  0.21875000000000000       0.93750000000000000        0.0000000000000000     
  0.25000000000000000       0.93750000000000000        0.0000000000000000     
  0.25000000000000000       0.96875000000000000        0.0000000000000000     
  0.20624999999999999       0.95625000000000004        0.0000000000000000     
  0.22812499999999999       0.95937499999999998        0.0000000000000000     
  0.23125000000000001       0.98124999999999996        0.0000000000000000     
  0.20937500000000001       0.97812500000000002        0.0000000000000000     
  0.15625000000000000       0.87500000000000000        0.0000000000000000     
  0.18750000000000000       0.87500000000000000        0.0000000000000000     
  0.18750000000000000       0.90625000000000000        0.0000000000000000     
  0.14374999999999999       0.89375000000000004        0.0000000000000000     
  0.16562499999999999       0.89687499999999998        0.0000000000000000     
  0.16875000000000001       0.91874999999999996        0.0000000000000000     
  0.14687500000000001       0.91562500000000002        0.0000000000000000     
  0.21875000000000000       0.87500000000000000        0.0000000000000000     
  0.25000000000000000       0.87500000000000000        0.0000000000000000     
  0.25000000000000000       0.90625000000000000        0.0000000000000000     
  0.20624999999999999       0.89375000000000004        0.0000000000000000     
  0.22812499999999999       0.89687499999999998        0.0000000000000000     
  0.23125000000000001       0.91874999999999996        0.0000000000000000     
  0.20937500000000001       0.91562500000000002        0.0000000000000000     
   3.1250000000000000E-002  0.81250000000000000        0.0000000000000000     
   6.2500000000000000E-002  0.81250000000000000        0.0000000000000000     
   6.2500000000000000E-002  0.84375000000000000        0.0000000000000000     
   1.8749999999999999E-002  0.83125000000000004        0.0000000000000000     
   4.0625000000000001E-002  0.83437499999999998        0.0000000000000000     
   4.3749999999999997E-002  0.85624999999999996        0.0000000000000000     
   2.1874999999999999E-002  0.85312500000000002        0.0000000000000000     
   9.3750000000000000E-002  0.81250000000000000        0.0000000000000000     
  0.12500000000000000       0.81250000000000000        0.0000000000000000     
  0.12500000000000000       0.84375000000000000        0.0000000000000000     
   8.1250000000000003E-002  0.83125000000000004        0.0000000000000000     
  0.10312499999999999       0.83437499999999998        0.0000000000000000     
  0.10625000000000000       0.85624999999999996        0.0000000000000000     
   8.4375000000000006E-002  0.85312500000000002        0.0000000000000000     
   3.1250000000000000E-002  0.75000000000000000        0.0000000000000000     
   6.2500000000000000E-002  0.75000000000000000        0.0000000000000000     
   6.2500000000000000E-002  0.78125000000000000        0.0000000000000000     
   1.8749999999999999E-002  0.76875000000000004        0.0000000000000000     
   4.0625000000000001E-002  0.77187499999999998        0.0000000000000000     
   4.3749999999999997E-002  0.79374999999999996        0.0000000000000000     
   2.1874999999999999E-002  0.79062500000000002        0.0000000000000000     
   9.3750000000000000E-002  0.75000000000000000        0.0000000000000000     
  0.12500000000000000       0.75000000000000000        0.0000000000000000     
  0.12500000000000000       0.78125000000000000        0.0000000000000000     
   8.1250000000000003E-002  0.76875000000000004        0.0000000000000000     
  0.10312499999999999       0.77187499999999998        0.0000000000000000     
  0.10625000000000000       0.79374999999999996        0.0000000000000000     
   8.4375000000000006E-002  0.79062500000000002        0.0000000000000000     
  0.15625000000000000       0.81250000000000000        0.0000000000000000     
  0.18750000000000000       0.81250000000000000        0.0000000000000000     
  0.18750000000000000       0.84375000000000000        0.0000000000000000     
  0.14374999999999999       0.83125000000000004        0.0000000000000000     
  0.16562499999999999       0.83437499999999998        0.0000000000000000     
  0.16875000000000001       0.85624999999999996        0.0000000000000000     
  0.14687500000000001       0.85312500000000002        0.0000000000000000     
  0.21875000000000000       0.81250000000000000        0.0000000000000000     
  0.25000000000000000       0.81250000000000000        0.0000000000000000     
  0.25000000000000000       0.84375000000000000        0.0000000000000000     
  0.20624999999999999       0.83125000000000004        0.0000000000000000     
  0.22812499999999999       0.83437499999999998        0.0000000000000000     
  0.23125000000000001       0.85624999999999996        0.0000000000000000     
  0.20937500000000001       0.85312500000000002        0.0000000000000000     
  0.15625000000000000       0.75000000000000000        0.0000000000000000     
  0.18750000000000000       0.75000000000000000        0.0000000000000000     
  0.18750000000000000       0.78125000000000000        0.0000000000000000     
  0.14374999999999999       0.76875000000000004        0.0000000000000000     
  0.16562499999999999       0.77187499999999998        0.0000000000000000     
  0.16875000000000001       0.79374999999999996        0.0000000000000000     
  0.14687500000000001       0.79062500000000002        0.0000000000000000     
  0.21875000000000000       0.75000000000000000        0.0000000000000000     
  0.25000000000000000       0.75000000000000000        0.0000000000000000     
  0.25000000000000000       0.78125000000000000        0.0000000000000000     
  0.20624999999999999       0.76875000000000004        0.0000000000000000     
  0.22812499999999999       0.77187499999999998        0.0000000000000000     
  0.23125000000000001       0.79374999999999996        0.0000000000000000     
  0.20937500000000001       0.79062500000000002        0.0000000000000000     
  0.28125000000000000       0.93750000000000000        0.0000000000000000     
  0.31250000000000000       0.93750000000000000        0.0000000000000000     
  0.31250000000000000       0.96875000000000000        0.0000000000000000     
  0.26874999999999999       0.95625000000000004        0.0000000000000000     
  0.29062500000000002       0.95937499999999998        0.0000000000000000     
  0.29375000000000001       0.98124999999999996        0.0000000000000000     
  0.27187499999999998       0.97812500000000002        0.0000000000000000     
  0.34375000000000000       0.93750000000000000        0.0000000000000000     
  0.37500000000000000       0.93750000000000000        0.0000000000000000     
  0.37500000000000000       0.96875000000000000        0.0000000000000000     
  0.33124999999999999       0.95625000000000004        0.0000000000000000     
  0.35312500000000002       0.95937499999999998        0.0000000000000000     
  0.35625000000000001       0.98124999999999996        0.0000000000000000     
[...]
 CELL_DATA        3584
 SCALARS Nutrients float
 LOOKUP_TABLE default
    0.61715916910608681345E+00
    0.61719283747024356046E+00
    0.61689262114332132914E+00
    0.61689262111570231095E+00
    0.61719283633590504845E+00
    0.61715916618659083515E+00
    0.61738994434210370255E+00
    0.61752513246605145181E+00
    0.61767296729335074978E+00
    0.61767296862282949910E+00
    0.61752513440423473234E+00
    0.61738994688632109487E+00
    0.61740870741640796471E+00
    0.61740870694432525845E+00
    0.61617329798771514060E+00
    0.61594920068943592728E+00
    0.61528186856216726675E+00
    0.61516609619702466993E+00
    0.61568128508411712474E+00
    0.61552476850871817859E+00
    0.61598914154603823246E+00
    0.61637966115641118492E+00
    0.61682508840761618440E+00
    0.61698767564155487797E+00
    0.61668375699737332241E+00
    0.61670430363773487414E+00
    0.61627289806103968672E+00
    0.61618903288663229301E+00
    0.61552477045101572362E+00
    0.61568128593188153896E+00
    0.61516609599040139589E+00
    0.61528186953374108814E+00
    0.61594920117219087441E+00
    0.61617329818623400861E+00
    0.61670430424642319611E+00
    0.61668375777567374652E+00
    0.61698767732973291977E+00
    0.61682509074098901269E+00
    0.61637966308480696132E+00
    0.61598914339996568845E+00
    0.61618903382091494425E+00
    0.61627289880446578518E+00
    0.61407069896785848595E+00
    0.61388523748352219478E+00
    0.61278266942998449451E+00
    0.61278267004235620341E+00
    0.61388523694037078204E+00
    0.61407069732953212249E+00
    0.61501233591099491171E+00
    0.61523749644822267602E+00
    0.61595588523099942257E+00
    0.61595588601138118179E+00
    0.61523749699468166519E+00
    0.61501233662250420764E+00
    0.61462940160741619255E+00
    0.61462940147577205252E+00
    0.61389693901115860442E+00
    0.61349716345637006487E+00
    0.61244641817681388929E+00
    0.61229645370460605847E+00
    0.61308358264248963287E+00
    0.61287501879994255027E+00
    0.61355544522051552736E+00
    0.61416059342536011290E+00
    0.61488769032373502554E+00
    0.61519080707882822789E+00
    0.61469250739572833808E+00
    0.61479527706862735492E+00
    0.61400043187505659592E+00
    0.61386180920515875936E+00
    0.61045398803888195616E+00
    0.61000951279065340760E+00
    0.60860758912840418056E+00
    0.60853942489482593103E+00
    0.60963243139917588920E+00
    0.60947269556789718248E+00
    0.61031385905130519642E+00
    0.61105175281803159049E+00
    0.61200522392793066384E+00
    0.61240573003913212347E+00
    0.61168552212576676741E+00
    0.61176772037916316016E+00
    0.61076291588744935357E+00
    0.61061471009826640000E+00
    0.61061750389342117629E+00
    0.61023482902484849077E+00
    0.60842926243760353522E+00
    0.60847610801334561792E+00
    0.61023325963817920403E+00
    0.61057780038355857766E+00
    0.61202187858456813530E+00
    0.61238113648103198461E+00
    0.61356369987145009670E+00
    0.61363927460527945001E+00
    0.61247702961866290483E+00
    0.61223491551547737366E+00
    0.61142786743082877532E+00
    0.61141357882606894858E+00
    0.60515632577034395023E+00
    0.60481568985002165384E+00
    0.60225022581956755285E+00
    0.60258722180125501300E+00
    0.60520208640458517113E+00
    0.60596265139549632117E+00
    0.60795172948664610857E+00
    0.60827152703818232471E+00
    0.60992623882103413901E+00
    0.60995500762627996583E+00
    0.60816595690192665202E+00
    0.60766008519936209886E+00
    0.60669775856098440148E+00
    0.60676988780989427053E+00
    0.61287501964229307294E+00
    0.61308358160079134969E+00
    0.61229645259736642515E+00
    0.61244641833334401149E+00
    0.61349716227799744317E+00
    0.61389693883548035469E+00
    0.61479527676380552048E+00
    0.61469250611492753933E+00
    0.61519080739431641902E+00
    0.61488769105670249004E+00
    0.61416059312865500797E+00
    0.61355544559554475725E+00
    0.61386180697189851596E+00
    0.61400042950090805149E+00
    0.61057780179855491998E+00
    0.61023326026337665340E+00
    0.60847610752307301762E+00
    0.60842926315089784772E+00
    0.61023482880387291960E+00
    0.61061750277407911280E+00
    0.61223491501919580227E+00
    0.61247702981886198437E+00
    0.61363927538022366992E+00
    0.61356370106801683129E+00
    0.61238113713903086222E+00
    0.61202187884449976707E+00
    0.61141357924621098086E+00
    0.61142786771414003866E+00
    0.60947269636763801159E+00
    0.60963243028065905449E+00
    0.60853942375495406747E+00
    0.60860758923454338909E+00
    0.61000951144612669541E+00
    0.61045398754157453869E+00
    0.61176771945099928107E+00
    0.61168552037674561728E+00
    0.61240572963795036898E+00
    0.61200522420025638137E+00
    0.61105175229620989352E+00
    0.61031385932639914405E+00
    0.61061470768680325971E+00
    0.61076291328873366648E+00
    0.60596265280593719638E+00
    0.60520208703386590976E+00
    0.60258722132557351880E+00
    0.60225022655520077386E+00
    0.60481568969045540474E+00
    0.60515632478170044983E+00
    0.60766008484157485459E+00
    0.60816595707868570386E+00
    0.60995500807894376116E+00
    0.60992623965951264786E+00
    0.60827152759767888490E+00
    0.60795172970876121266E+00
    0.60676988822172528426E+00
    0.60669775885483645528E+00
    0.60491255656416820230E+00
    0.60418433124031989401E+00
    0.60113062026722829945E+00
    0.60113062089771496233E+00
    0.60418433089361389676E+00
    0.60491255546940492227E+00
    0.60752762475047317192E+00
    0.60793575398736676707E+00
    0.60993123227908230266E+00
    0.60993123227744772130E+00
    0.60793575416165301917E+00
    0.60752762530840276334E+00
    0.60618367321486710253E+00
    0.60618367316700394465E+00
    0.59535890903959831633E+00
    0.59459809409207575737E+00
    0.58992613691660911179E+00
    0.59043632441933402433E+00
    0.59531510041481783269E+00
    0.59693860583296443068E+00
    0.60078622848794516198E+00
    0.60104609883591730846E+00
    0.60401704555912194561E+00
    0.60386602434859271149E+00
    0.60059959425695763624E+00
    0.59969504649277793895E+00
    0.59798179150593255837E+00
    0.59815237073924643063E+00
    0.59693860698765910389E+00
    0.59531510081402705392E+00
    0.59043632365206677459E+00
    0.58992613757112188910E+00
    0.59459809369268568080E+00
    0.59535890785876666165E+00
    0.59969504600542600237E+00
    0.60059959411790120321E+00
    0.60386602434303660036E+00
    0.60401704563420022254E+00
    0.60104609904894912287E+00
    0.60078622904659872983E+00
    0.59815237081629013538E+00
    0.59798179147079688622E+00
    0.58044616879689536759E+00
    0.57819909769348631912E+00
    0.56992824303765954319E+00
    0.56992824379741435781E+00
    0.57819909708985028907E+00
    0.58044616725561004600E+00
    0.58738298323750448571E+00
    0.58821795291105360981E+00
    0.59348214808004973175E+00
    0.59348214800237930611E+00
    0.58821795310188773609E+00
    0.58738298393262666774E+00
    0.58348492153695896700E+00
    0.58348492144067842791E+00
    0.60619390236479908651E+00
    0.60589306505861006968E+00
    0.60425735408238523405E+00
    0.60440733479766239888E+00
    0.60578604217230891393E+00
    0.60579373308559625322E+00
    0.60669318815215300678E+00
    0.60743325939382397660E+00
    0.60850014567907118046E+00
    0.60892534900699879508E+00
    0.60798506489146908471E+00
    0.60791295998724759198E+00
    0.60694159089194721357E+00
    0.60684499499601596284E+00
    0.60176614808272488322E+00
    0.60181437561267736580E+00
    0.60014724589825696466E+00
    0.60062690924977524265E+00
    0.60219981300238156763E+00
    0.60247596949637971520E+00
    0.60329985880408465437E+00
    0.60388491961059820312E+00
    0.60490233277343219420E+00
    0.60525678015959349931E+00
    0.60414607986901225356E+00
    0.60378375743357926009E+00
    0.60314564801394254800E+00
    0.60316386665462085048E+00
    0.59806673163874568555E+00
    0.59814700057886549533E+00
    0.59494944798397930708E+00
    0.59587298646670794344E+00
    0.59941578373915405109E+00
    0.60085454142380967379E+00
    0.60331824610404716225E+00
    0.60336394546391591831E+00
    0.60540022767273293791E+00
    0.60521729672688540091E+00
    0.60266535767305051685E+00
    0.60157776365288151421E+00
    0.60091118588848868587E+00
    0.60119962519843639370E+00
    0.59044986033953084092E+00
    0.59137206943807207882E+00
    0.58791266223064386764E+00
    0.58963445840866357539E+00
    0.59393634217519808427E+00
    0.59619902479103881188E+00
    0.59893092846830964238E+00
    0.59847431333920653174E+00
    0.60067683382678938031E+00
    0.60011263213540766426E+00
    0.59680845302452967260E+00
    0.59484220006441201889E+00
    0.59503270204171521129E+00
    0.59565288617513978409E+00
    0.59800470808684225155E+00
    0.59854904271147901795E+00
    0.59708053468391120155E+00
    0.59793306001288093476E+00
    0.59955719740573931720E+00
    0.60015065648420384825E+00
    0.60077095270971259122E+00
    0.60106267402650070952E+00
    0.60185914649470173554E+00
    0.60204986382117320343E+00
    0.60086517082657542321E+00
    0.60012431711947777924E+00
    0.60008320080290511456E+00
    0.60025996698489503256E+00
    0.59565369193528361347E+00
    0.59673471854624593469E+00
    0.59565235090743917645E+00
    0.59684421985704172453E+00
    0.59836674976371706514E+00
    0.59926306343728574788E+00
    0.59959163428689432607E+00
    0.59950905382734964721E+00
    0.59995376949887357920E+00
    0.59991814202614390794E+00
    0.59877688540518625437E+00
    0.59764855520326842786E+00
    0.59834748533430470729E+00
    0.59869411095816649215E+00
    0.58393566324922030475E+00
    0.58593544495312555043E+00
    0.58268155238811158991E+00
    0.58520748228808794345E+00
    0.58990241779923713317E+00
    0.59294023811695917292E+00
    0.59565865580334764751E+00
    0.59457287924858881478E+00
    0.59665801984792221635E+00
    0.59561098071347551297E+00
    0.59176214237218016656E+00
    0.58880294595350279874E+00
    0.59027151596171190118E+00
    0.59126520500242518708E+00
    0.57991047866166378633E+00
    0.58294443472752766056E+00
    0.58027344215980813935E+00
    0.58343411489640040202E+00
    0.58809762815019384075E+00
    0.59170241275419988014E+00
    0.59413790584085801605E+00
    0.59243383377252523125E+00
    0.59414640382295702548E+00
    0.59262441447792491012E+00
    0.58856666637735399750E+00
    0.58474284506723861465E+00
    0.58759112639276100953E+00
    0.58891361709067091557E+00
    0.58196802209800491124E+00
    0.58196132892028717976E+00
    0.57574105235253969504E+00
    0.57749136402524781086E+00
    0.58453358784600617515E+00
    0.58769975556852060983E+00
    0.59275810206460577412E+00
    0.59237600683025959381E+00
    0.59626711351572769804E+00
    0.59561487934470291883E+00
    0.59063298355515836402E+00
    0.58852791456582875806E+00
    0.58730693699507152683E+00
    0.58793955420349564012E+00
    0.56678912783058388314E+00
    0.56862965608728754940E+00
    0.56171372637530159189E+00
    0.56525542778672455135E+00
    0.57410458392069363409E+00
    0.57915230732068079256E+00
    0.58499811932224254907E+00
    0.58347925292119240392E+00
    0.58788567253326096118E+00
    0.58634070783897007662E+00
    0.57954195883729364702E+00
    0.57546308008814150980E+00
    0.57606960295437192876E+00
    0.57744937736470836054E+00
    0.55429195271068099071E+00
    0.55280618902396672087E+00
    0.54040971822413963466E+00
    0.54287732803860033748E+00
    0.55622382826167926506E+00
    0.56176610345086019915E+00
    0.57158015354181157530E+00
    0.57123533864557185513E+00
    0.57871205280509141478E+00
    0.57784449221636102756E+00
    0.56896792475429436298E+00
    0.56610669086232290326E+00
    0.56231560895954013635E+00
    0.56314886498875993404E+00
    0.52119541493281018596E+00
    0.52407626357288539243E+00
    0.50995833468939799626E+00
    0.51682009355511626669E+00
    0.53436735042870442403E+00
    0.54425456509237102320E+00
    0.55589489683182391477E+00
    0.55299106639490880344E+00
    0.56178021502762398587E+00
    0.55895737854788019039E+00
    0.54578624003523734665E+00
    0.53847449264574054340E+00
    0.53861500533339978780E+00
    0.54117927773228147181E+00
    0.55385730429843360589E+00
    0.55805347979351482834E+00
    0.55154652170948714751E+00
    0.55678213945149346298E+00
    0.56654221960191153418E+00
    0.57324678464780209897E+00
    0.57924431498349437941E+00
    0.57639745149886201236E+00
    0.58070966689540226557E+00
    0.57807955152487111583E+00
    0.56994487878390809321E+00
    0.56364291323048498761E+00
    0.56701850940362996667E+00
    0.56920879088498332887E+00
    0.54616670191824967517E+00
    0.55241978895311893982E+00
    0.54702205377687396215E+00
    0.55348094507340017678E+00
    0.56323511304945250711E+00
    0.57104151898427391032E+00
    0.57660857549392274812E+00
    0.57258179299285327790E+00
    0.57628594796267407219E+00
    0.57268148399115070823E+00
    0.56400571498234575163E+00
    0.55591265690185853732E+00
    0.56204996938863815981E+00
    0.56489259476700692808E+00
    0.49405661425824848321E+00
    0.50245576000218783452E+00
    0.48968453574240428106E+00
    0.50011058206425207384E+00
    0.51936603051298091405E+00
    0.53270557884081526367E+00
    0.54461895060544684988E+00
    0.53884017603257849949E+00
    0.54737251370701811570E+00
    0.54210911080994694800E+00
    0.52598740016380196582E+00
    0.51354227211025771371E+00
    0.52020622212220912761E+00
    0.52456824534447621389E+00
    0.47936360624231127980E+00
    0.49176572835319887211E+00
    0.48123052002341554223E+00
    0.49394388791044968601E+00
    0.51313275451920747905E+00
    0.52856106063347596535E+00
    0.53964804947884237318E+00
    0.53157033654617935614E+00
    0.53887392431514236080E+00
    0.53163306051550762721E+00
    0.51450379160713244353E+00
    0.49846973341888067832E+00
    0.51072217871172242987E+00
    0.51635482698012924452E+00
    0.60579373390733226579E+00
    0.60578604107422961977E+00
    0.60440733367644883245E+00
    0.60425735420367709949E+00
    0.60589306372473084039E+00
    0.60619390186884003491E+00
    0.60791295904485964652E+00
    0.60798506314039602039E+00
    0.60892534859036351325E+00
    0.60850014595046608701E+00
    0.60743325888292509784E+00
    0.60669318844558206560E+00
    0.60684499259831892193E+00
    0.60694158830379174585E+00
    0.60085454281705386048E+00
    0.59941578438589215860E+00
    0.59587298598779170344E+00
    0.59494944883316025486E+00
    0.59814700046097912800E+00
    0.59806673056783354880E+00
    0.60157776331165913053E+00
    0.60266535786215980064E+00
    0.60521729718160388600E+00
    0.60540022851428121342E+00
    0.60336394603546161797E+00
    0.60331824633327835183E+00
    0.60119962563617890261E+00
    0.60091118620934935723E+00
    0.60247597034228339563E+00
    0.60219981192751592669E+00
    0.60062690815334862648E+00
    0.60014724602217373040E+00
    0.60181437427846429244E+00
    0.60176614755508506249E+00
    0.60378375649964510785E+00
    0.60414607813844378725E+00
    0.60525677976600278374E+00
    0.60490233306862539742E+00
    0.60388491912270025885E+00
    0.60329985912179295848E+00
    0.60316386427826518268E+00
    0.60314564544398097112E+00
    0.59619902631938215265E+00
    0.59393634288003416266E+00
    0.58963445783924794963E+00
    0.58791266299511657500E+00
    0.59137206919811657890E+00
    0.59044985930736371138E+00
    0.59484219976286822895E+00
    0.59680845325777709398E+00
    0.60011263261257585810E+00
    0.60067683467383869989E+00
    0.59847431389595928675E+00
    0.59893092869519104493E+00
    0.59565288660580095748E+00
    0.59503270233970850800E+00
    0.58769975694989584625E+00
    0.58453358826960077899E+00
    0.57749136304927828345E+00
    0.57574105283808041378E+00
    0.58196132831145919173E+00
    0.58196802089859289708E+00
    0.58852791392240566548E+00
    0.59063298334404101819E+00
    0.59561487940695090337E+00
    0.59626711351653849391E+00
    0.59237600700749459826E+00
    0.59275810277120055680E+00
    0.58793955422097055052E+00
    0.58730693684583867853E+00
    0.56176610533526283309E+00
    0.55622382884014665017E+00
    0.54287732693113477378E+00
    0.54040971858620756585E+00
    0.55280618808113746177E+00
    0.55429195108923412505E+00
    0.56610668999156721348E+00
    0.56896792446958788236E+00
    0.57784449270938575971E+00
    0.57871205297280570168E+00
    0.57123533888850341889E+00
    0.57158015426057762198E+00
    0.56314886496364291446E+00
    0.56231560865034024843E+00
    0.57915230896324976229E+00
    0.57410458443756717806E+00
    0.56525542677661533286E+00
    0.56171372687263110279E+00
    0.56862965554592337369E+00
    0.56678912684758031570E+00
    0.57546307928211992699E+00
    0.57954195858725077173E+00
    0.58634070820148354031E+00
    0.58788567271563929584E+00
    0.58347925318806936890E+00
    0.58499812010862750622E+00
    0.57744937740458635034E+00
    0.57606960279213126341E+00
    0.54425456722309739632E+00
    0.53436735120191414250E+00
    0.51682009252349847550E+00
    0.50995833515621624699E+00
    0.52407626303616094976E+00
    0.52119541406197689160E+00
    0.53847449175029538093E+00
    0.54578623998064634826E+00
    0.55895737948173396248E+00
    0.56178021556677260051E+00
    0.55299106689543464643E+00
    0.55589489766060973253E+00
    0.54117927794685327658E+00
    0.53861500528914152408E+00
    0.60015065735832262561E+00
    0.59955719634794546469E+00
    0.59793305889772929707E+00
    0.59708053480573397565E+00
    0.59854904140263609502E+00
    0.59800470761716140178E+00
    0.60012431622654383023E+00
    0.60086516912414700275E+00
    0.60204986345241995327E+00
    0.60185914681532226567E+00
    0.60106267356439524452E+00
    0.60077095305685113136E+00
    0.60025996463187880625E+00
    0.60008319825713629658E+00
    0.59294023952391838872E+00
    0.58990241848710711636E+00
    0.58520748168064407047E+00
    0.58268155314013825308E+00
    0.58593544475756453860E+00
    0.58393566236892735510E+00
    0.58880294559057377857E+00
    0.59176214266384186136E+00
    0.59561098144016844103E+00
    0.59665802085630659235E+00
    0.59457287983442486112E+00
    0.59565865599013845255E+00
    0.59126520542975846695E+00
    0.59027151626864660106E+00
    0.59926306435166309949E+00
    0.59836674872152795235E+00
    0.59684421875854365425E+00
    0.59565235103931279959E+00
    0.59673471719977633221E+00
    0.59565369124866751616E+00
    0.59764855425917706722E+00
    0.59877688369028470028E+00
    0.59991814168247870054E+00
    0.59995376985053439078E+00
    0.59950905338289639523E+00
    0.59959163467185006002E+00
    0.59869410859135574476E+00
    0.59834748279308480612E+00
    0.59170241415919333505E+00
    0.58809762889189332036E+00
    0.58343411438165881933E+00
    0.58027344280461590209E+00
    0.58294443451490840502E+00
    0.57991047782879778794E+00
    0.58474284465892634177E+00
    0.58856666657269607335E+00
    0.59262441509793073458E+00
    0.59414640464711354628E+00
    0.59243383428333606933E+00
    0.59413790603644933697E+00
    0.58891361750016191223E+00
    0.58759112666246893220E+00
    0.57324678640481818714E+00
    0.56654222018365940627E+00
    0.55678213841663115602E+00
    0.55154652221527689093E+00
    0.55805347930563509173E+00
    0.55385730344150818638E+00
    0.56364291240964348173E+00
    0.56994487863317444543E+00
    0.57807955218348083815E+00
    0.58070966731307871456E+00
    0.57639745189474012044E+00
    0.57924431581906254962E+00
    0.56920879099976695592E+00
    0.56701850930538577611E+00
    0.53270558095185105429E+00
    0.51936603127873326446E+00
    0.50011058084211668096E+00
    0.48968453593403471480E+00
    0.50245575946514375865E+00
    0.49405661343518675332E+00
    0.51354227128070417674E+00
    0.52598740025822099398E+00
    0.54210911200362033036E+00
    0.54737251444924872601E+00
    0.53884017665509165163E+00
    0.54461895146444039284E+00