# vtk DataFile Version 3.0
LAPLACIEN  2D
ASCII
DATASET UNSTRUCTURED_GRID
 POINTS        1857  float
   3.1250000000000000E-002  0.93750000000000000        0.0000000000000000     
   6.2500000000000000E-002  0.93750000000000000        0.0000000000000000     
   6.2500000000000000E-002  0.96875000000000000        0.0000000000000000     
   1.8749999999999999E-002  0.95625000000000004        0.0000000000000000     
   4.0625000000000001E-002  0.95937499999999998        0.0000000000000000     
   4.3749999999999997E-002  0.98124999999999996        0.0000000000000000     
   2.1874999999999999E-002  0.97812500000000002        0.0000000000000000     
   9.3750000000000000E-002  0.93750000000000000        0.0000000000000000     
  0.12500000000000000       0.93750000000000000        0.0000000000000000     
  0.12500000000000000       0.96875000000000000        0.0000000000000000     
   8.1250000000000003E-002  0.95625000000000004        0.0000000000000000     
  0.10312499999999999       0.95937499999999998        0.0000000000000000     
  0.10625000000000000       0.98124999999999996        0.0000000000000000     
   8.4375000000000006E-002  0.97812500000000002        0.0000000000000000     
   3.1250000000000000E-002  0.87500000000000000        0.0000000000000000     
   6.2500000000000000E-002  0.87500000000000000        0.0000000000000000     
   6.2500000000000000E-002  0.90625000000000000        0.0000000000000000     
   1.8749999999999999E-002  0.89375000000000004        0.0000000000000000     
   4.0625000000000001E-002  0.89687499999999998        0.0000000000000000     
   4.3749999999999997E-002  0.91874999999999996        0.0000000000000000     
   2.1874999999999999E-002  0.91562500000000002        0.0000000000000000     
   9.3750000000000000E-002  0.87500000000000000        0.0000000000000000     
  0.12500000000000000       0.87500000000000000        0.0000000000000000     
  0.12500000000000000       0.90625000000000000        0.0000000000000000     
   8.1250000000000003E-002  0.89375000000000004        0.0000000000000000     
  0.10312499999999999       0.89687499999999998        0.0000000000000000     
  0.10625000000000000       0.91874999999999996        0.0000000000000000     
   8.4375000000000006E-002  0.91562500000000002        0.0000000000000000     
  0.15625000000000000       0.93750000000000000        0.0000000000000000     
  0.18750000000000000       0.93750000000000000        0.0000000000000000     
  0.18750000000000000       0.96875000000000000        0.0000000000000000     
  0.14374999999999999       0.95625000000000004        0.0000000000000000     
  0.16562499999999999       0.95937499999999998        0.0000000000000000     
  0.16875000000000001       0.98124999999999996        0.0000000000000000     
  0.14687500000000001       0.97812500000000002        0.0000000000000000     
  0.21875000000000000       0.93750000000000000        0.0000000000000000     
  0.25000000000000000       0.93750000000000000        0.0000000000000000     
  0.25000000000000000       0.96875000000000000        0.0000000000000000     
  0.20624999999999999       0.95625000000000004        0.0000000000000000     
  0.22812499999999999       0.95937499999999998        0.0000000000000000     
  0.23125000000000001       0.98124999999999996        0.0000000000000000     
  0.20937500000000001       0.97812500000000002        0.0000000000000000     
  0.15625000000000000       0.87500000000000000        0.0000000000000000     
  0.18750000000000000       0.87500000000000000        0.0000000000000000     
  0.18750000000000000       0.90625000000000000        0.0000000000000000     
  0.14374999999999999       0.89375000000000004        0.0000000000000000     
  0.16562499999999999       0.89687499999999998        0.0000000000000000     
  0.16875000000000001       0.91874999999999996        0.0000000000000000     
  0.14687500000000001       0.91562500000000002        0.0000000000000000     
  0.21875000000000000       0.87500000000000000        0.0000000000000000     
  0.25000000000000000       0.87500000000000000        0.0000000000000000     
  0.25000000000000000       0.90625000000000000        0.0000000000000000     
  0.20624999999999999       0.89375000000000004        0.0000000000000000     
  0.22812499999999999       0.89687499999999998        0.0000000000000000     
  0.23125000000000001       0.91874999999999996        0.0000000000000000     
  0.20937500000000001       0.91562500000000002        0.0000000000000000     
   3.1250000000000000E-002  0.81250000000000000        0.0000000000000000     
   6.2500000000000000E-002  0.81250000000000000        0.0000000000000000     
   6.2500000000000000E-002  0.84375000000000000        0.0000000000000000     
   1.8749999999999999E-002  0.83125000000000004        0.0000000000000000     
   4.0625000000000001E-002  0.83437499999999998        0.0000000000000000     
   4.3749999999999997E-002  0.85624999999999996        0.0000000000000000     
   2.1874999999999999E-002  0.85312500000000002        0.0000000000000000     
   9.3750000000000000E-002  0.81250000000000000        0.0000000000000000     
  0.12500000000000000       0.81250000000000000        0.0000000000000000     
  0.12500000000000000       0.84375000000000000        0.0000000000000000     
   8.1250000000000003E-002  0.83125000000000004        0.0000000000000000     
  0.10312499999999999       0.83437499999999998        0.0000000000000000     
  0.10625000000000000       0.85624999999999996        0.0000000000000000     
   8.4375000000000006E-002  0.85312500000000002        0.0000000000000000     
   3.1250000000000000E-002  0.75000000000000000        0.0000000000000000     
   6.2500000000000000E-002  0.75000000000000000        0.0000000000000000     
   6.2500000000000000E-002  0.78125000000000000        0.0000000000000000     
   1.8749999999999999E-002  0.76875000000000004        0.0000000000000000     
   4.0625000000000001E-002  0.77187499999999998        0.0000000000000000     
   4.3749999999999997E-002  0.79374999999999996        0.0000000000000000     
   2.1874999999999999E-002  0.79062500000000002        0.0000000000000000     
   9.3750000000000000E-002  0.75000000000000000        0.0000000000000000     
  0.12500000000000000       0.75000000000000000        0.0000000000000000     
  0.12500000000000000       0.78125000000000000        0.0000000000000000     
   8.1250000000000003E-002  0.76875000000000004        0.0000000000000000     
  0.10312499999999999       0.77187499999999998        0.0000000000000000     
  0.10625000000000000       0.79374999999999996        0.0000000000000000     
   8.4375000000000006E-002  0.79062500000000002        0.0000000000000000     
  0.15625000000000000       0.81250000000000000        0.0000000000000000     
  0.18750000000000000       0.81250000000000000        0.0000000000000000     
  0.18750000000000000       0.84375000000000000        0.0000000000000000     
  0.14374999999999999       0.83125000000000004        0.0000000000000000     
  0.16562499999999999       0.83437499999999998        0.0000000000000000     
  0.16875000000000001       0.85624999999999996        0.0000000000000000     
  0.14687500000000001       0.85312500000000002        0.0000000000000000     
  0.21875000000000000       0.81250000000000000        0.0000000000000000     
  0.25000000000000000       0.81250000000000000        0.0000000000000000     
  0.25000000000000000       0.84375000000000000        0.0000000000000000     
  0.20624999999999999       0.83125000000000004        0.0000000000000000     
  0.22812499999999999       0.83437499999999998        0.0000000000000000     
  0.23125000000000001       0.85624999999999996        0.0000000000000000     
  0.20937500000000001       0.85312500000000002        0.0000000000000000     
  0.15625000000000000       0.75000000000000000        0.0000000000000000     
  0.18750000000000000       0.75000000000000000        0.0000000000000000     
  0.18750000000000000       0.78125000000000000        0.0000000000000000     
  0.14374999999999999       0.76875000000000004        0.0000000000000000     
  0.16562499999999999       0.77187499999999998        0.0000000000000000     
  0.16875000000000001       0.79374999999999996        0.0000000000000000     
  0.14687500000000001       0.79062500000000002        0.0000000000000000     
  0.21875000000000000       0.75000000000000000        0.0000000000000000     
  0.25000000000000000       0.75000000000000000        0.0000000000000000     
  0.25000000000000000       0.78125000000000000        0.0000000000000000     
  0.20624999999999999       0.76875000000000004        0.0000000000000000     
  0.22812499999999999       0.77187499999999998        0.0000000000000000     
  0.23125000000000001       0.79374999999999996        0.0000000000000000     
  0.20937500000000001       0.79062500000000002        0.0000000000000000     
  0.28125000000000000       0.93750000000000000        0.0000000000000000     
  0.31250000000000000       0.93750000000000000        0.0000000000000000     
  0.31250000000000000       0.96875000000000000        0.0000000000000000     
  0.26874999999999999       0.95625000000000004        0.0000000000000000     
  0.29062500000000002       0.95937499999999998        0.0000000000000000     
  0.29375000000000001       0.98124999999999996        0.0000000000000000     
  0.27187499999999998       0.97812500000000002        0.0000000000000000     
  0.34375000000000000       0.93750000000000000        0.0000000000000000     
  0.37500000000000000       0.93750000000000000        0.0000000000000000     
  0.37500000000000000       0.96875000000000000        0.0000000000000000     
  0.33124999999999999       0.95625000000000004        0.0000000000000000     
  0.35312500000000002       0.95937499999999998        0.0000000000000000     
  0.35625000000000001       0.98124999999999996        0.0000000000000000     
[...]
 CELL_DATA        3584
 SCALARS Nutrients float
 LOOKUP_TABLE default
    0.61715959977297751848E+00
    0.61719325657233714555E+00
    0.61689305046537890043E+00
    0.61689305020279183722E+00
    0.61719325592344520537E+00
    0.61715959856279634099E+00
    0.61739041517588411079E+00
    0.61752559800419704050E+00
    0.61767349459701870185E+00
    0.61767349592963893823E+00
    0.61752559982150101447E+00
    0.61739041696251573121E+00
    0.61740905228500375657E+00
    0.61740905188629813249E+00
    0.61617351936904829479E+00
    0.61594923355087782824E+00
    0.61528174206565222626E+00
    0.61516586836572106911E+00
    0.61568110257932162632E+00
    0.61552449156197952540E+00
    0.61598901396940497488E+00
    0.61637968703957091154E+00
    0.61682534379093001409E+00
    0.61698804077113977851E+00
    0.61668399873457180327E+00
    0.61670467394490469104E+00
    0.61627285914058849148E+00
    0.61618893020504572622E+00
    0.61552449332366865331E+00
    0.61568110386424490521E+00
    0.61516586862834743421E+00
    0.61528174409474911677E+00
    0.61594923519947841761E+00
    0.61617352086210974704E+00
    0.61670467513888571620E+00
    0.61668399937680551393E+00
    0.61698804084932945546E+00
    0.61682534504447117385E+00
    0.61637968908721796346E+00
    0.61598901628945734732E+00
    0.61618893167324251259E+00
    0.61627286047394236324E+00
    0.61407017960447951577E+00
    0.61388459908137749110E+00
    0.61278158267862070652E+00
    0.61278158335403398738E+00
    0.61388459829192065786E+00
    0.61407017752035997216E+00
    0.61501214716268148841E+00
    0.61523735767910892047E+00
    0.61595605141706155639E+00
    0.61595605311492163114E+00
    0.61523735969192516748E+00
    0.61501214908934098702E+00
    0.61462894062623341096E+00
    0.61462894018907865412E+00
    0.61389626170284439244E+00
    0.61349619704210156534E+00
    0.61244510179013400553E+00
    0.61229507805305549706E+00
    0.61308237151633881989E+00
    0.61287375008893685280E+00
    0.61355433707292705847E+00
    0.61415968114090968566E+00
    0.61488708906619915506E+00
    0.61519038369403222788E+00
    0.61469191578657766950E+00
    0.61479489643492934992E+00
    0.61399945297414015855E+00
    0.61386074624117303866E+00
    0.61045172691121962760E+00
    0.61000715585642251160E+00
    0.60860448409091127964E+00
    0.60853669163392420938E+00
    0.60963029468450846693E+00
    0.60947082784670258970E+00
    0.61031208702142747402E+00
    0.61105000221456562404E+00
    0.61200369904616458427E+00
    0.61240432626808216643E+00
    0.61168387274538427167E+00
    0.61176613072322283404E+00
    0.61076088349164070479E+00
    0.61061269283182895151E+00
    0.61061473214887196370E+00
    0.61023161062628161755E+00
    0.60842384587656372918E+00
    0.60847099967211892846E+00
    0.61023021888704587212E+00
    0.61057534343362629414E+00
    0.61202033783146903012E+00
    0.61237970523349882779E+00
    0.61356291691956854617E+00
    0.61363855899152142115E+00
    0.61247565663614245146E+00
    0.61223346410273138396E+00
    0.61142567408814474383E+00
    0.61141140038729802075E+00
    0.60514415165238866212E+00
    0.60480330681391802905E+00
    0.60222985566474940278E+00
    0.60256966747962026343E+00
    0.60519230276458468865E+00
    0.60595583597203772630E+00
    0.60794769489835343013E+00
    0.60826715249675988861E+00
    0.60992350525113803172E+00
    0.60995208956783630860E+00
    0.60816067777020643703E+00
    0.60765362611218642908E+00
    0.60669020300182030514E+00
    0.60676283044247047993E+00
    0.61287374779253722679E+00
    0.61308236727421649981E+00
    0.61229507429547658237E+00
    0.61244510018222941827E+00
    0.61349619392586229871E+00
    0.61389626072564906778E+00
    0.61479489591505220858E+00
    0.61469191297564074183E+00
    0.61519038318216379135E+00
    0.61488708821303350582E+00
    0.61415967808581861664E+00
    0.61355433457237151806E+00
    0.61386074083660235878E+00
    0.61399944781410764616E+00
    0.61057534387936884812E+00
    0.61023021908544250458E+00
    0.60847099845827079534E+00
    0.60842384642631608394E+00
    0.61023161010556015160E+00
    0.61061473073351291152E+00
    0.61223346346045859345E+00
    0.61247565683603799602E+00
    0.61363855984252868581E+00
    0.61356291750761438042E+00
    0.61237970535057983934E+00
    0.61202033688769963415E+00
    0.61141140058638399069E+00
    0.61142567421133120487E+00
    0.60947082582695499831E+00
    0.60963029054332540380E+00
    0.60853668739654953601E+00
    0.60860448199373728961E+00
    0.61000715170215313865E+00
    0.61045172353227594719E+00
    0.61176612692678611349E+00
    0.61168386797991503023E+00
    0.61240432274512490718E+00
    0.61200369608332916282E+00
    0.61104999854784070035E+00
    0.61031208425310179422E+00
    0.61061268761969500485E+00
    0.61076087812142254574E+00
    0.60595583671408914661E+00
    0.60519230256212896979E+00
    0.60256966573262249476E+00
    0.60222985561888364714E+00
    0.60480330558982364764E+00
    0.60514415015860489877E+00
    0.60765362480519868882E+00
    0.60816067678224017268E+00
    0.60995208896411978738E+00
    0.60992350387022653546E+00
    0.60826715156225508174E+00
    0.60794769379504454143E+00
    0.60676282972293171802E+00
    0.60669020212418212079E+00
    0.60489868115453393482E+00
    0.60416729657028223066E+00
    0.60110061007318504878E+00
    0.60110061090066602141E+00
    0.60416729569190452676E+00
    0.60489867904052985192E+00
    0.60752032261491384357E+00
    0.60792895052891149366E+00
    0.60992767271006320673E+00
    0.60992767247934021047E+00
    0.60792895089644338746E+00
    0.60752032359630203651E+00
    0.60617279182007155480E+00
    0.60617279163982085155E+00
    0.59528623203068675718E+00
    0.59451826104686822383E+00
    0.58979382566834226420E+00
    0.59031359247755810227E+00
    0.59524508930271113893E+00
    0.59688632392763307788E+00
    0.60075791617762253072E+00
    0.60101703554919738703E+00
    0.60400094573962248568E+00
    0.60384875844005359014E+00
    0.60056634267789099635E+00
    0.59965603807240730472E+00
    0.59793217921320318542E+00
    0.59810477576626031038E+00
    0.59688632603953761802E+00
    0.59524508971388467859E+00
    0.59031359084813628257E+00
    0.58979382567363636269E+00
    0.59451825963670068553E+00
    0.59528623001849689800E+00
    0.59965603690398672221E+00
    0.60056634231472338925E+00
    0.60384875942535187754E+00
    0.60400094593601416637E+00
    0.60101703580913101721E+00
    0.60075791678018053421E+00
    0.59810477553177676668E+00
    0.59793217861269476465E+00
    0.58014057517352812798E+00
    0.57783560007392820168E+00
    0.56934171872953176496E+00
    0.56934171939338751312E+00
    0.57783559883950785796E+00
    0.58014057244951899861E+00
    0.58720926950094287644E+00
    0.58805438301329215900E+00
    0.59339013880184210414E+00
    0.59339013830617914902E+00
    0.58805438329156511923E+00
    0.58720927030348779585E+00
    0.58323846838498283329E+00
    0.58323846815423918688E+00
    0.60618909935352305318E+00
    0.60588889689979485986E+00
    0.60425146948910779532E+00
    0.60440283705961450611E+00
    0.60578319960360071939E+00
    0.60579173868989255602E+00
    0.60669137789772431546E+00
    0.60743124207609655585E+00
    0.60849828447770237805E+00
    0.60892343386334513156E+00
    0.60798259344656402359E+00
    0.60790994151416988256E+00
    0.60693870912774461335E+00
    0.60684236695519888638E+00
    0.60175716351510688540E+00
    0.60180740910209606920E+00
    0.60013696386705883690E+00
    0.60061962299919158248E+00
    0.60219583160006062705E+00
    0.60247353430876104952E+00
    0.60329794575642969878E+00
    0.60388273087908095338E+00
    0.60490050867629130416E+00
    0.60525475125631611473E+00
    0.60414276154775281569E+00
    0.60377880147182572124E+00
    0.60314165528915331116E+00
    0.60316045733189016520E+00
    0.59802718377997066135E+00
    0.59811110622028951234E+00
    0.59489300395399458132E+00
    0.59582770448268407293E+00
    0.59939127426262039933E+00
    0.60083925078817912446E+00
    0.60330974497582212646E+00
    0.60335350965685352609E+00
    0.60539379356931566356E+00
    0.60520950661650008140E+00
    0.60265006091484651929E+00
    0.60155660470936667128E+00
    0.60089057897470210534E+00
    0.60118134079470697539E+00
    0.59035439279892132358E+00
    0.59129273087162714795E+00
    0.58779377397365295543E+00
    0.58954420943219743023E+00
    0.59388775229170787107E+00
    0.59617069082996365648E+00
    0.59891531740281955809E+00
    0.59845353276134849452E+00
    0.60066394455307769995E+00
    0.60009566430325900210E+00
    0.59677369656803891385E+00
    0.59479005488205349828E+00
    0.59498840047764012251E+00
    0.59561497581146738423E+00
    0.59798972448567455640E+00
    0.59853813477032569157E+00
    0.59706477190738693750E+00
    0.59792228018374393717E+00
    0.59955135924487079624E+00
    0.60014710870473697568E+00
    0.60076823802395618035E+00
    0.60105966415659917157E+00
    0.60185686306798946710E+00
    0.60204728948747066042E+00
    0.60086028799224022734E+00
    0.60011635820264863650E+00
    0.60007728571917751115E+00
    0.60025502963726884431E+00
    0.59563295698631391062E+00
    0.59672046666480937915E+00
    0.59563300180740275103E+00
    0.59683144486406025653E+00
    0.59835958502407216031E+00
    0.59925877694295404119E+00
    0.59958812217572676762E+00
    0.59950500387245631018E+00
    0.59995049790544885404E+00
    0.59991442307096420894E+00
    0.59877006160130563650E+00
    0.59763716256602816834E+00
    0.59833966461831167294E+00
    0.59868767663390654032E+00
    0.58375764755463066535E+00
    0.58579813464290775293E+00
    0.58248637915407119880E+00
    0.58506640700954171130E+00
    0.58982578915032779499E+00
    0.59289769014134097169E+00
    0.59563451494390717844E+00
    0.59453872863438017582E+00
    0.59663600455451260007E+00
    0.59558048388531947825E+00
    0.59169931477730564051E+00
    0.58870319196515885629E+00
    0.59019570210192395798E+00
    0.59120214357747402634E+00
    0.57965393856775193626E+00
    0.58276067932697450669E+00
    0.58002920128897161867E+00
    0.58326564483505760617E+00
    0.58800421782464018516E+00
    0.59165277654669901075E+00
    0.59410835470387091117E+00
    0.59238930129708200489E+00
    0.59411582001592233571E+00
    0.59258025151713067391E+00
    0.58847708880440807722E+00
    0.58459363218416227070E+00
    0.58748967504729887601E+00
    0.58883147248261835660E+00
    0.58170098154468996565E+00
    0.58169741519461459767E+00
    0.57533296842304493257E+00
    0.57713559918645740421E+00
    0.58432826722297726008E+00
    0.58755724847140355926E+00
    0.59267813955149417637E+00
    0.59228580907784356135E+00
    0.59621353651965713905E+00
    0.59555301014357586720E+00
    0.59051503629839752207E+00
    0.58837768164806136806E+00
    0.58714444690915357228E+00
    0.58778954945478567584E+00
    0.56608550809180968599E+00
    0.56799033366063755857E+00
    0.56078347054045907250E+00
    0.56448442346415939053E+00
    0.57365455609877524790E+00
    0.57885815617704450275E+00
    0.58482754050407981250E+00
    0.58327114052507844644E+00
    0.58775420279674728263E+00
    0.58617947473633946753E+00
    0.57923793912261023475E+00
    0.57504972361436690331E+00
    0.57567830489915439163E+00
    0.57709937902156738243E+00
    0.55312983766535117613E+00
    0.55156337742583894102E+00
    0.53861221830142624878E+00
    0.54114268494603978699E+00
    0.55509920918180866156E+00
    0.56087084792764330121E+00
    0.57104158586958786437E+00
    0.57068069794311560017E+00
    0.57837054412803601267E+00
    0.57747900478685076919E+00
    0.56834060509515049731E+00
    0.56538999826134184179E+00
    0.56145401500095937219E+00
    0.56231552627177050496E+00
    0.51830813675672648966E+00
    0.52109581920267544763E+00
    0.50599474551324341576E+00
    0.51304016607743863077E+00
    0.53181566891721698820E+00
    0.54230461804415464044E+00
    0.55466301435785192453E+00
    0.55162889666004744083E+00
    0.56087457271743379472E+00
    0.55793735433403734980E+00
    0.54410550082426722973E+00
    0.53648581447457843741E+00
    0.53647368586294097437E+00
    0.53915033652078614423E+00
    0.55245667759862682189E+00
    0.55687379055920382953E+00
    0.54993576793089216093E+00
    0.55551019316376082369E+00
    0.56578683957940545390E+00
    0.57277915028673576092E+00
    0.57896220573997725367E+00
    0.57602733861825416994E+00
    0.58046162608745166533E+00
    0.57775951148101711841E+00
    0.56934837084972678145E+00
    0.56278629670595781143E+00
    0.56629782041442067175E+00
    0.56858237683332102375E+00
    0.54407271338720808451E+00
    0.55078944536783414065E+00
    0.54496089293593807934E+00
    0.55193110933620626035E+00
    0.56228971599028854111E+00
    0.57048532602431434313E+00
    0.57625494852046899030E+00
    0.57208164756273183205E+00
    0.57592588513306564035E+00
    0.57219353589994659259E+00
    0.56311522519335166503E+00
    0.55456582781928154269E+00
    0.56104885071604704283E+00
    0.56404732334261609150E+00
    0.48840397378816302609E+00
    0.49694812765405782518E+00
    0.48286736567322829927E+00
    0.49385631528673029633E+00
    0.51498759688760120667E+00
    0.52950520928260436104E+00
    0.54248416713977853920E+00
    0.53630736799899358935E+00
    0.54556102538777351274E+00
    0.53997599352183989208E+00
    0.52259305218724971809E+00
    0.50937895797788357299E+00
    0.51616687288602502992E+00
    0.52082740529335758151E+00
    0.47104368396025386723E+00
    0.48421674615793947050E+00
    0.47261335894165507066E+00
    0.48636376079107318526E+00
    0.50762156367930599821E+00
    0.52472106289354303321E+00
    0.53692098808108068564E+00
    0.52807909088463533820E+00
    0.53615884989258855153E+00
    0.52828422410444020318E+00
    0.50938006040589300927E+00
    0.49190339513375919145E+00
    0.50507763895224766504E+00
    0.51125914709775666100E+00
    0.60579173808913555632E+00
    0.60578319631962562752E+00
    0.60440283279979323261E+00
    0.60425146730302026210E+00
    0.60588889288158231938E+00
    0.60618909600221759781E+00
    0.60790993740506071852E+00
    0.60798258891187106912E+00
    0.60892343074223453936E+00
    0.60849828204647615770E+00
    0.60743123945020582877E+00
    0.60669137645711879170E+00
    0.60684236271634273141E+00
    0.60693870446636766225E+00
    0.60083925204783383833E+00
    0.59939127435381656106E+00
    0.59582770296271958532E+00
    0.59489300411198875462E+00
    0.59811110519340271452E+00
    0.59802718247489572434E+00
    0.60155660308645153567E+00
    0.60265006000132381736E+00
    0.60520950644614701641E+00
    0.60539379243644220185E+00
    0.60335350889540417807E+00
    0.60330974396862913078E+00
    0.60118134021840974324E+00
    0.60089057820793345677E+00
    0.60247353410703208265E+00
    0.60219582901043833267E+00
    0.60061961912545969167E+00
    0.60013696213399214674E+00
    0.60180740578597602397E+00
    0.60175716064698481222E+00
    0.60377879745689333468E+00
    0.60414275784294568794E+00
    0.60525474954649061132E+00
    0.60490050775423609419E+00
    0.60388272953086963302E+00
    0.60329794482343834794E+00
    0.60316045419748953726E+00
    0.60314165164414412779E+00
    0.59617069260479516046E+00
    0.59388775280285999170E+00
    0.58954420818125474746E+00
    0.58779377444009428544E+00
    0.59129273023708828205E+00
    0.59035439194981120803E+00
    0.59479005356068970212E+00
    0.59677369613456321407E+00
    0.60009566476100872912E+00
    0.60066394400359779393E+00
    0.59845353252223865148E+00
    0.59891531687366628134E+00
    0.59561497568883681186E+00
    0.59498840015272647097E+00
    0.58755725107858425282E+00
    0.58432826807424953497E+00
    0.57713559811059533811E+00
    0.57533296893446428388E+00
    0.58169741429155574775E+00
    0.58170098038153417175E+00
    0.58837768015994140747E+00
    0.59051503601033838997E+00
    0.59555301133899152255E+00
    0.59621353701178081419E+00
    0.59228580960441201686E+00
    0.59267814039984223484E+00
    0.58778954953930651062E+00
    0.58714444660346176708E+00
    0.56087085199814989966E+00
    0.55509921182183463717E+00
    0.54114268712834567854E+00
    0.53861222146412457423E+00
    0.55156337745800487760E+00
    0.55312983614808675092E+00
    0.56538999742701157025E+00
    0.56834060551989784571E+00
    0.57747900657276451941E+00
    0.57837054497156115129E+00
    0.57068069905254925622E+00
    0.57104158731639198532E+00
    0.56231552730271638918E+00
    0.56145401553571605557E+00
    0.57885815905872850529E+00
    0.57365455739868442819E+00
    0.56448442281299759937E+00
    0.56078347198911415727E+00
    0.56799033384269248526E+00
    0.56608550830371962004E+00
    0.57504972287413380627E+00
    0.57923793952369406757E+00
    0.58617947651005741783E+00
    0.58775420382257137497E+00
    0.58327114156190040806E+00
    0.58482754168730699540E+00
    0.57709937973173408565E+00
    0.57567830534293551459E+00
    0.54230462326935424677E+00
    0.53181567513377936418E+00
    0.51304017337821483657E+00
    0.50599475877707311700E+00
    0.52109582775966789558E+00
    0.51830814563079585788E+00
    0.53648581827530006372E+00
    0.54410550491146025820E+00
    0.55793735795397392252E+00
    0.56087457525503225941E+00
    0.55162890010557186216E+00
    0.55466301706530962701E+00
    0.53915034156517227526E+00
    0.53647369133151945331E+00
    0.60014710924338665610E+00
    0.59955135719497132385E+00
    0.59792227643829576333E+00
    0.59706477031537741329E+00
    0.59853813187270588081E+00
    0.59798972201565536722E+00
    0.60011635452535172508E+00
    0.60086028473819774742E+00
    0.60204728845349764210E+00
    0.60185686301566054812E+00
    0.60105966338013061545E+00
    0.60076823754795827259E+00
    0.60025502715932699260E+00
    0.60007728268341209432E+00
    0.59289769161882432957E+00
    0.58982578941377183934E+00
    0.58506640516187236045E+00
    0.58248637916084677890E+00
    0.58579813392316559817E+00
    0.58375764678486452564E+00
    0.58870319085896882783E+00
    0.59169931462233615882E+00
    0.59558048482898517939E+00
    0.59663600441909370176E+00
    0.59453872858509815291E+00
    0.59563451446494286579E+00
    0.59120214349542044019E+00
    0.59019570185348269042E+00
    0.59925877632817370344E+00
    0.59835958235087716162E+00
    0.59683144019644918110E+00
    0.59563299876211550643E+00
    0.59672046314819737756E+00
    0.59563295403128369010E+00
    0.59763715888303436952E+00
    0.59877005864871601926E+00
    0.59991442293223318227E+00
    0.59995049886884421753E+00
    0.59950500318391597432E+00
    0.59958812099580716115E+00
    0.59868767401899392055E+00
    0.59833966147631090227E+00
    0.59165277377727865105E+00
    0.58800421483224463159E+00
    0.58326563969204503479E+00
    0.58002919757384929778E+00
    0.58276067626259775434E+00
    0.57965393611459259393E+00
    0.58459363016854481998E+00
    0.58847708759704631110E+00
    0.59258025192898955424E+00
    0.59411581919263511953E+00
    0.59238929961986697137E+00
    0.59410835196884159704E+00
    0.58883147031716787101E+00
    0.58748967294375498138E+00
    0.57277915193875328370E+00
    0.56578683958758069217E+00
    0.55551019021159997457E+00
    0.54993576685039136098E+00
    0.55687378957473887553E+00
    0.55245667722472624472E+00
    0.56278629603959351435E+00
    0.56934837114236291900E+00
    0.57775951340850895122E+00
    0.58046162716297333706E+00
    0.57602733930227867365E+00
    0.57896220633907835573E+00
    0.56858237687727664067E+00
    0.56629782024427732789E+00
    0.52950520815642709849E+00
    0.51498759366499835544E+00
    0.49385630611036618332E+00
    0.48286735635429917091E+00
    0.49694812541234290038E+00
    0.48840397781637717722E+00
    0.50937896347672473318E+00
    0.52259305507810138725E+00
    0.53997599728579037670E+00
    0.54556102714608400994E+00
    0.53630736819829916140E+00
    0.54248416636175822436E+00