# vtk DataFile Version 3.0
LAPLACIEN  2D
ASCII
DATASET UNSTRUCTURED_GRID
 POINTS        1857  float
   3.1250000000000000E-002  0.93750000000000000        0.0000000000000000     
   6.2500000000000000E-002  0.93750000000000000        0.0000000000000000     
   6.2500000000000000E-002  0.96875000000000000        0.0000000000000000     
   1.8749999999999999E-002  0.95625000000000004        0.0000000000000000     
   4.0625000000000001E-002  0.95937499999999998        0.0000000000000000     
   4.3749999999999997E-002  0.98124999999999996        0.0000000000000000     
   2.1874999999999999E-002  0.97812500000000002        0.0000000000000000     
   9.3750000000000000E-002  0.93750000000000000        0.0000000000000000     
  0.12500000000000000       0.93750000000000000        0.0000000000000000     
  0.12500000000000000       0.96875000000000000        0.0000000000000000     
   8.1250000000000003E-002  0.95625000000000004        0.0000000000000000     
  0.10312499999999999       0.95937499999999998        0.0000000000000000     
  0.10625000000000000       0.98124999999999996        0.0000000000000000     
   8.4375000000000006E-002  0.97812500000000002        0.0000000000000000     
   3.1250000000000000E-002  0.87500000000000000        0.0000000000000000     
   6.2500000000000000E-002  0.87500000000000000        0.0000000000000000     
   6.2500000000000000E-002  0.90625000000000000        0.0000000000000000     
   1.8749999999999999E-002  0.89375000000000004        0.0000000000000000     
   4.0625000000000001E-002  0.89687499999999998        0.0000000000000000     
   4.3749999999999997E-002  0.91874999999999996        0.0000000000000000     
   2.1874999999999999E-002  0.91562500000000002        0.0000000000000000     
   9.3750000000000000E-002  0.87500000000000000        0.0000000000000000     
  0.12500000000000000       0.87500000000000000        0.0000000000000000     
  0.12500000000000000       0.90625000000000000        0.0000000000000000     
   8.1250000000000003E-002  0.89375000000000004        0.0000000000000000     
  0.10312499999999999       0.89687499999999998        0.0000000000000000     
  0.10625000000000000       0.91874999999999996        0.0000000000000000     
   8.4375000000000006E-002  0.91562500000000002        0.0000000000000000     
  0.15625000000000000       0.93750000000000000        0.0000000000000000     
  0.18750000000000000       0.93750000000000000        0.0000000000000000     
  0.18750000000000000       0.96875000000000000        0.0000000000000000     
  0.14374999999999999       0.95625000000000004        0.0000000000000000     
  0.16562499999999999       0.95937499999999998        0.0000000000000000     
  0.16875000000000001       0.98124999999999996        0.0000000000000000     
  0.14687500000000001       0.97812500000000002        0.0000000000000000     
  0.21875000000000000       0.93750000000000000        0.0000000000000000     
  0.25000000000000000       0.93750000000000000        0.0000000000000000     
  0.25000000000000000       0.96875000000000000        0.0000000000000000     
  0.20624999999999999       0.95625000000000004        0.0000000000000000     
  0.22812499999999999       0.95937499999999998        0.0000000000000000     
  0.23125000000000001       0.98124999999999996        0.0000000000000000     
  0.20937500000000001       0.97812500000000002        0.0000000000000000     
  0.15625000000000000       0.87500000000000000        0.0000000000000000     
  0.18750000000000000       0.87500000000000000        0.0000000000000000     
  0.18750000000000000       0.90625000000000000        0.0000000000000000     
  0.14374999999999999       0.89375000000000004        0.0000000000000000     
  0.16562499999999999       0.89687499999999998        0.0000000000000000     
  0.16875000000000001       0.91874999999999996        0.0000000000000000     
  0.14687500000000001       0.91562500000000002        0.0000000000000000     
  0.21875000000000000       0.87500000000000000        0.0000000000000000     
  0.25000000000000000       0.87500000000000000        0.0000000000000000     
  0.25000000000000000       0.90625000000000000        0.0000000000000000     
  0.20624999999999999       0.89375000000000004        0.0000000000000000     
  0.22812499999999999       0.89687499999999998        0.0000000000000000     
  0.23125000000000001       0.91874999999999996        0.0000000000000000     
  0.20937500000000001       0.91562500000000002        0.0000000000000000     
   3.1250000000000000E-002  0.81250000000000000        0.0000000000000000     
   6.2500000000000000E-002  0.81250000000000000        0.0000000000000000     
   6.2500000000000000E-002  0.84375000000000000        0.0000000000000000     
   1.8749999999999999E-002  0.83125000000000004        0.0000000000000000     
   4.0625000000000001E-002  0.83437499999999998        0.0000000000000000     
   4.3749999999999997E-002  0.85624999999999996        0.0000000000000000     
   2.1874999999999999E-002  0.85312500000000002        0.0000000000000000     
   9.3750000000000000E-002  0.81250000000000000        0.0000000000000000     
  0.12500000000000000       0.81250000000000000        0.0000000000000000     
  0.12500000000000000       0.84375000000000000        0.0000000000000000     
   8.1250000000000003E-002  0.83125000000000004        0.0000000000000000     
  0.10312499999999999       0.83437499999999998        0.0000000000000000     
  0.10625000000000000       0.85624999999999996        0.0000000000000000     
   8.4375000000000006E-002  0.85312500000000002        0.0000000000000000     
   3.1250000000000000E-002  0.75000000000000000        0.0000000000000000     
   6.2500000000000000E-002  0.75000000000000000        0.0000000000000000     
   6.2500000000000000E-002  0.78125000000000000        0.0000000000000000     
   1.8749999999999999E-002  0.76875000000000004        0.0000000000000000     
   4.0625000000000001E-002  0.77187499999999998        0.0000000000000000     
   4.3749999999999997E-002  0.79374999999999996        0.0000000000000000     
   2.1874999999999999E-002  0.79062500000000002        0.0000000000000000     
   9.3750000000000000E-002  0.75000000000000000        0.0000000000000000     
  0.12500000000000000       0.75000000000000000        0.0000000000000000     
  0.12500000000000000       0.78125000000000000        0.0000000000000000     
   8.1250000000000003E-002  0.76875000000000004        0.0000000000000000     
  0.10312499999999999       0.77187499999999998        0.0000000000000000     
  0.10625000000000000       0.79374999999999996        0.0000000000000000     
   8.4375000000000006E-002  0.79062500000000002        0.0000000000000000     
  0.15625000000000000       0.81250000000000000        0.0000000000000000     
  0.18750000000000000       0.81250000000000000        0.0000000000000000     
  0.18750000000000000       0.84375000000000000        0.0000000000000000     
  0.14374999999999999       0.83125000000000004        0.0000000000000000     
  0.16562499999999999       0.83437499999999998        0.0000000000000000     
  0.16875000000000001       0.85624999999999996        0.0000000000000000     
  0.14687500000000001       0.85312500000000002        0.0000000000000000     
  0.21875000000000000       0.81250000000000000        0.0000000000000000     
  0.25000000000000000       0.81250000000000000        0.0000000000000000     
  0.25000000000000000       0.84375000000000000        0.0000000000000000     
  0.20624999999999999       0.83125000000000004        0.0000000000000000     
  0.22812499999999999       0.83437499999999998        0.0000000000000000     
  0.23125000000000001       0.85624999999999996        0.0000000000000000     
  0.20937500000000001       0.85312500000000002        0.0000000000000000     
  0.15625000000000000       0.75000000000000000        0.0000000000000000     
  0.18750000000000000       0.75000000000000000        0.0000000000000000     
  0.18750000000000000       0.78125000000000000        0.0000000000000000     
  0.14374999999999999       0.76875000000000004        0.0000000000000000     
  0.16562499999999999       0.77187499999999998        0.0000000000000000     
  0.16875000000000001       0.79374999999999996        0.0000000000000000     
  0.14687500000000001       0.79062500000000002        0.0000000000000000     
  0.21875000000000000       0.75000000000000000        0.0000000000000000     
  0.25000000000000000       0.75000000000000000        0.0000000000000000     
  0.25000000000000000       0.78125000000000000        0.0000000000000000     
  0.20624999999999999       0.76875000000000004        0.0000000000000000     
  0.22812499999999999       0.77187499999999998        0.0000000000000000     
  0.23125000000000001       0.79374999999999996        0.0000000000000000     
  0.20937500000000001       0.79062500000000002        0.0000000000000000     
  0.28125000000000000       0.93750000000000000        0.0000000000000000     
  0.31250000000000000       0.93750000000000000        0.0000000000000000     
  0.31250000000000000       0.96875000000000000        0.0000000000000000     
  0.26874999999999999       0.95625000000000004        0.0000000000000000     
  0.29062500000000002       0.95937499999999998        0.0000000000000000     
  0.29375000000000001       0.98124999999999996        0.0000000000000000     
  0.27187499999999998       0.97812500000000002        0.0000000000000000     
  0.34375000000000000       0.93750000000000000        0.0000000000000000     
  0.37500000000000000       0.93750000000000000        0.0000000000000000     
  0.37500000000000000       0.96875000000000000        0.0000000000000000     
  0.33124999999999999       0.95625000000000004        0.0000000000000000     
  0.35312500000000002       0.95937499999999998        0.0000000000000000     
  0.35625000000000001       0.98124999999999996        0.0000000000000000     
[...]
 CELL_DATA        3584
 SCALARS Nutrients float
 LOOKUP_TABLE default
    0.61715860094086016918E+00
    0.61719226867336185460E+00
    0.61689206356987613677E+00
    0.61689206396399054455E+00
    0.61719226817567751642E+00
    0.61715859917646642696E+00
    0.61738934710583293075E+00
    0.61752452622591702536E+00
    0.61767232653216874727E+00
    0.61767232758551648963E+00
    0.61752452745774810694E+00
    0.61738934841771131445E+00
    0.61740815323050313168E+00
    0.61740815297027928921E+00
    0.61617285819551370629E+00
    0.61594885054247905387E+00
    0.61528161281108362246E+00
    0.61516590488271871706E+00
    0.61568106224903818013E+00
    0.61552462263045060187E+00
    0.61598889235893738991E+00
    0.61637931066779672040E+00
    0.61682461497702745223E+00
    0.61698714622082906356E+00
    0.61668328981027942248E+00
    0.61670378003509929155E+00
    0.61627256525060991610E+00
    0.61618873616104274937E+00
    0.61552462408606922750E+00
    0.61568106248629961286E+00
    0.61516590422138206495E+00
    0.61528161321969465636E+00
    0.61594885021143552795E+00
    0.61617285738013327645E+00
    0.61670377983058666249E+00
    0.61668328964708374329E+00
    0.61698714674368171362E+00
    0.61682461608680061449E+00
    0.61637931153905356485E+00
    0.61598889329336636855E+00
    0.61618873627188697206E+00
    0.61627256519294282278E+00
    0.61407058732712893612E+00
    0.61388514210198619203E+00
    0.61278265311291868489E+00
    0.61278265366052642182E+00
    0.61388514168958163708E+00
    0.61407058621372123675E+00
    0.61501210056745536647E+00
    0.61523722682196213540E+00
    0.61595547461536570566E+00
    0.61595547478754242299E+00
    0.61523722686298787377E+00
    0.61501210075496348662E+00
    0.61462925725043560110E+00
    0.61462925721525996092E+00
    0.61389695212709149974E+00
    0.61349735436958996448E+00
    0.61244672957407464420E+00
    0.61229686963035645508E+00
    0.61308400115511518802E+00
    0.61287554888000106423E+00
    0.61355587445223103149E+00
    0.61416085896066463512E+00
    0.61488775643687265671E+00
    0.61519075622939312087E+00
    0.61469253712668669998E+00
    0.61479516983594617585E+00
    0.61400066987436496824E+00
    0.61386211631109877107E+00
    0.61045451600520683755E+00
    0.61001015331409957909E+00
    0.60860820051728181657E+00
    0.60854004706367614830E+00
    0.60963314068027241177E+00
    0.60947339104748321503E+00
    0.61031461559277011553E+00
    0.61105250635111707513E+00
    0.61200591680919447235E+00
    0.61240633980385439372E+00
    0.61168615142239601834E+00
    0.61176820898977413155E+00
    0.61076365157050871435E+00
    0.61061547464025145437E+00
    0.61061762671380892531E+00
    0.61023502865318068888E+00
    0.60842952088026047708E+00
    0.60847641170769417585E+00
    0.61023356227834379961E+00
    0.61057816419234989258E+00
    0.61202217282933657483E+00
    0.61238132130622868754E+00
    0.61356371860152414399E+00
    0.61363923228961425593E+00
    0.61247709985866183313E+00
    0.61223494471869610578E+00
    0.61142808597257281011E+00
    0.61141382948260480923E+00
    0.60515679158710533603E+00
    0.60481624649318854736E+00
    0.60225096120830390323E+00
    0.60258787624895171486E+00
    0.60520266374715170343E+00
    0.60596319200341786093E+00
    0.60795231361511992141E+00
    0.60827208688265987924E+00
    0.60992673897604920974E+00
    0.60995543121617634696E+00
    0.60816640639478436459E+00
    0.60766044380922246138E+00
    0.60669832012389335318E+00
    0.60677047017153684649E+00
    0.61287555018760930814E+00
    0.61308400097158299857E+00
    0.61229686882054001895E+00
    0.61244672981805570178E+00
    0.61349735356920187535E+00
    0.61389695108916353394E+00
    0.61479516916532361837E+00
    0.61469253636843590449E+00
    0.61519075642690357331E+00
    0.61488775724867306138E+00
    0.61416085934979081085E+00
    0.61355587517843657164E+00
    0.61386211545003144252E+00
    0.61400066882027204418E+00
    0.61057816526437391769E+00
    0.61023356266063077946E+00
    0.60847641113851602679E+00
    0.60842952140748840506E+00
    0.61023502823658570815E+00
    0.61061762560836574387E+00
    0.61223494431264535720E+00
    0.61247709980193154600E+00
    0.61363923237448458892E+00
    0.61356371873794657290E+00
    0.61238132128831013201E+00
    0.61202217291639282593E+00
    0.61141382950194089752E+00
    0.61142808592993425076E+00
    0.60947339236651232319E+00
    0.60963314049739869560E+00
    0.60854004626278457302E+00
    0.60860820076648958210E+00
    0.61001015250134837942E+00
    0.61045451494115410274E+00
    0.61176820823877775535E+00
    0.61168615061785003295E+00
    0.61240633992877080427E+00
    0.61200591758796918374E+00
    0.61105250672596544970E+00
    0.61031461632239714099E+00
    0.61061547376092073502E+00
    0.61076365049270364693E+00
    0.60596319309298340983E+00
    0.60520266414340317951E+00
    0.60258787569864513678E+00
    0.60225096175246251029E+00
    0.60481624608133621734E+00
    0.60515679047791581802E+00
    0.60766044338804325875E+00
    0.60816640632686380652E+00
    0.60995543127582529941E+00
    0.60992673909536332388E+00
    0.60827208686404199423E+00
    0.60795231371007407706E+00
    0.60677047019557406315E+00
    0.60669832008304713789E+00
    0.60491298297550333274E+00
    0.60418485280773315260E+00
    0.60113159596539300633E+00
    0.60113159651196179656E+00
    0.60418485241089692206E+00
    0.60491298188702757876E+00
    0.60752790295380110219E+00
    0.60793600936240355104E+00
    0.60993138111357225739E+00
    0.60993138108581101964E+00
    0.60793600940918901543E+00
    0.60752790333799966405E+00
    0.60618405470511382838E+00
    0.60618405467022651312E+00
    0.59536248630087129641E+00
    0.59460218994954527894E+00
    0.58993439861497143362E+00
    0.59044340913300452645E+00
    0.59531838410694459807E+00
    0.59694066841403392587E+00
    0.60078724222020829515E+00
    0.60104715694663257697E+00
    0.60401759503105123539E+00
    0.60386657435305901576E+00
    0.60060080008567573451E+00
    0.59969651095879761282E+00
    0.59798389837223386856E+00
    0.59815434517568633055E+00
    0.59694066953165347833E+00
    0.59531838452886953750E+00
    0.59044340861494781780E+00
    0.58993439918723555859E+00
    0.59460218956268362511E+00
    0.59536248521139045753E+00
    0.59969651056287465174E+00
    0.60060080003660698544E+00
    0.60386657437045077046E+00
    0.60401759500071527942E+00
    0.60104715700186728267E+00
    0.60078724262286542501E+00
    0.59815434522336807799E+00
    0.59798389834634380069E+00
    0.58047344240772813517E+00
    0.57823516000181873764E+00
    0.56999673613466605993E+00
    0.56999673669660155806E+00
    0.57823515958719962082E+00
    0.58047344126569389022E+00
    0.58739553049735260259E+00
    0.58822979199894898095E+00
    0.59348725867841445325E+00
    0.59348725866028329001E+00
    0.58822979206004177843E+00
    0.58739553092035146076E+00
    0.58350604579894715940E+00
    0.58350604575793363349E+00
    0.60619438971662598092E+00
    0.60589347256318915047E+00
    0.60425758727998013509E+00
    0.60440747507580050435E+00
    0.60578629864938215999E+00
    0.60579388081739016236E+00
    0.60669349055555188421E+00
    0.60743372663573491632E+00
    0.60850075147702564760E+00
    0.60892599954353376912E+00
    0.60798565203036469828E+00
    0.60791354446899215080E+00
    0.60694209342060057022E+00
    0.60684545755798557920E+00
    0.60176611202876451046E+00
    0.60181422127739658823E+00
    0.60014699712531560660E+00
    0.60062659120614947383E+00
    0.60219953575155671377E+00
    0.60247564085141791512E+00
    0.60329958791873861124E+00
    0.60388476348956632300E+00
    0.60490230182039705920E+00
    0.60525682908198397136E+00
    0.60414606604226051001E+00
    0.60378380843406309619E+00
    0.60314554257548413929E+00
    0.60316372249859417920E+00
    0.59806805345068425606E+00
    0.59814807207392151067E+00
    0.59495114743544275093E+00
    0.59587406768246176103E+00
    0.59941634269925536671E+00
    0.60085477348645333073E+00
    0.60331849913964352705E+00
    0.60336437061230452361E+00
    0.60540070691957792448E+00
    0.60521781801378260468E+00
    0.60266596136128558481E+00
    0.60157850396816081595E+00
    0.60091186025362819390E+00
    0.60120020331912171763E+00
    0.59045266126251672034E+00
    0.59137385230854466744E+00
    0.58791560705603629344E+00
    0.58963610142106903655E+00
    0.59393690076202854122E+00
    0.59619902920386191880E+00
    0.59893075938888140630E+00
    0.59847436843934487261E+00
    0.60067684999470161156E+00
    0.60011280815574963299E+00
    0.59680901349485226959E+00
    0.59484340950202130305E+00
    0.59503340310310282035E+00
    0.59565334673861947135E+00
    0.59800446414091756875E+00
    0.59854882786599594713E+00
    0.59708042282173900972E+00
    0.59793297037458126297E+00
    0.59955707531364665908E+00
    0.60015060469672987242E+00
    0.60077081240697027820E+00
    0.60106244645103068525E+00
    0.60185882854722705382E+00
    0.60204952381510079551E+00
    0.60086486208619283023E+00
    0.60012399121368198429E+00
    0.60008299081903737626E+00
    0.60025978412242575466E+00
    0.59565381766165170774E+00
    0.59673492326419919074E+00
    0.59565262180226841160E+00
    0.59684449117258275841E+00
    0.59836705451481764229E+00
    0.59926340411621903392E+00
    0.59959196884493992652E+00
    0.59950930933710100401E+00
    0.59995389477360294705E+00
    0.59991817118019064026E+00
    0.59877697324573964099E+00
    0.59764853690929997665E+00
    0.59834772869801478024E+00
    0.59869439566252846685E+00
    0.58393987444532258202E+00
    0.58593797368253652813E+00
    0.58268549654773982294E+00
    0.58520972455668196499E+00
    0.58990330369170518310E+00
    0.59294052128458396567E+00
    0.59565863752985670487E+00
    0.59457298162444716105E+00
    0.59665787388089386312E+00
    0.59561099373592785167E+00
    0.59176285700318154159E+00
    0.58880472713229192738E+00
    0.59027249614878207762E+00
    0.59126587586902834559E+00
    0.57991555351546364427E+00
    0.58294747845514338636E+00
    0.58027787253763862818E+00
    0.58343666118481107841E+00
    0.58809881859093027234E+00
    0.59170296265637867261E+00
    0.59413824650093227664E+00
    0.59243430102613958699E+00
    0.59414661912413824219E+00
    0.59262475587412577482E+00
    0.58856778482715121914E+00
    0.58474519439699923495E+00
    0.58759249999300977585E+00
    0.58891464907369517334E+00
    0.58198883721887606502E+00
    0.58198007150459440950E+00
    0.57577340837407142704E+00
    0.57751562577666448739E+00
    0.58454515754162617025E+00
    0.58770590328370386768E+00
    0.59276097984314135569E+00
    0.59237987408735015560E+00
    0.59626908523461175093E+00
    0.59561741946758595123E+00
    0.59063927970976071169E+00
    0.58853730258182934687E+00
    0.58731627932336005760E+00
    0.58794753763756391063E+00
    0.56684524136327885113E+00
    0.56867207337588876470E+00
    0.56177762684885912403E+00
    0.56529945650018009751E+00
    0.57412630628875427341E+00
    0.57916294845050142470E+00
    0.58500336011637155131E+00
    0.58348741049527097502E+00
    0.58789027820425177051E+00
    0.58634758921902174755E+00
    0.57955866931200861192E+00
    0.57549128445132413656E+00
    0.57609084252077236155E+00
    0.57746646515386756970E+00
    0.55446332809279286202E+00
    0.55298564556499552047E+00
    0.54069641622662278913E+00
    0.54312875701314278221E+00
    0.55636480830597978553E+00
    0.56185923829157280451E+00
    0.57162905385411488801E+00
    0.57129161985715382066E+00
    0.57874194349415064575E+00
    0.57787890634404848189E+00
    0.56904064601585113703E+00
    0.56619678714680554688E+00
    0.56242298580304128652E+00
    0.56324825052494120747E+00
    0.52167869657313115095E+00
    0.52450422123350926018E+00
    0.51055315687094038335E+00
    0.51730329160818278034E+00
    0.53464774530220959825E+00
    0.54442393413739709196E+00
    0.55599165954814977475E+00
    0.55311991845014063518E+00
    0.56186133546440508724E+00
    0.55906237623314491980E+00
    0.54599284911480028271E+00
    0.53876482653992774363E+00
    0.53887427279866373375E+00
    0.54140555186990368952E+00
    0.55394539364451444996E+00
    0.55811437782968320587E+00
    0.55163265798931948591E+00
    0.55683874503363062214E+00
    0.56657042097918630663E+00
    0.57326011268490750794E+00
    0.57925120950740516257E+00
    0.57640881544795430358E+00
    0.58071666870888916101E+00
    0.57809069048954020431E+00
    0.56997102647399244812E+00
    0.56369009387402413402E+00
    0.56704893026871694417E+00
    0.56923249756950278222E+00
    0.54627493669659243913E+00
    0.55249095235679512861E+00
    0.54711992606156134578E+00
    0.55354307024478455190E+00
    0.56326610382976149971E+00
    0.57105581933902305192E+00
    0.57661619025169785768E+00
    0.57259469115547056983E+00
    0.57629426884668377706E+00
    0.57269500913758353278E+00
    0.56403706188200941618E+00
    0.55597132572057939015E+00
    0.56208511486612811048E+00
    0.56491949061952129174E+00
    0.49488111172736443111E+00
    0.50312884741353602891E+00
    0.49057871149233156505E+00
    0.50080317385752093351E+00
    0.51976502395438384241E+00
    0.53293263130457724230E+00
    0.54475123029123695417E+00
    0.53903023346012313155E+00
    0.54750141998043422298E+00
    0.54228794164424665158E+00
    0.52633196895075529120E+00
    0.51406386669975234760E+00
    0.52060733862892549784E+00
    0.52490686425941990301E+00
    0.48050365551958368338E+00
    0.49263980106818516802E+00
    0.48234133857533201262E+00
    0.49476370021088122986E+00
    0.51360652844867638045E+00
    0.52881752725521613545E+00
    0.53980020501996106574E+00
    0.53180157145656592466E+00
    0.53903493610463892871E+00
    0.53186637288126059619E+00
    0.51496016494820162634E+00
    0.49919700582405052147E+00
    0.51123322146010274913E+00
    0.51677494980123883650E+00
    0.60579388216158625013E+00
    0.60578629849272913610E+00
    0.60440747430476726709E+00
    0.60425758755643110831E+00
    0.60589347177247698806E+00
    0.60619438867289843209E+00
    0.60791354373227934893E+00
    0.60798565124467018883E+00
    0.60892599968595506610E+00
    0.60850075227509248244E+00
    0.60743372703129794310E+00
    0.60669349130829519634E+00
    0.60684545670058831490E+00
    0.60694209236386620354E+00
    0.60085477460668312855E+00
    0.59941634312863345535E+00
    0.59587406717255497757E+00
    0.59495114801881743283E+00
    0.59814807169354788918E+00
    0.59806805237257221197E+00
    0.60157850357019426735E+00
    0.60266596131827365745E+00
    0.60521781809593921952E+00
    0.60540070706134807565E+00
    0.60336437061894909739E+00
    0.60331849926222147484E+00
    0.60120020337191015791E+00
    0.60091186024124854104E+00
    0.60247564222377603116E+00
    0.60219953562379935352E+00
    0.60062659046459832002E+00
    0.60014699743111377117E+00
    0.60181422051458022260E+00
    0.60176611101475174781E+00
    0.60378380772673923005E+00
    0.60414606528476089142E+00
    0.60525682925022394887E+00
    0.60490230264408562100E+00
    0.60388476391091538975E+00
    0.60329958869830102586E+00
    0.60316372166858678305E+00
    0.60314554154634780758E+00
    0.59619903035640586797E+00
    0.59393690122558684408E+00
    0.58963610094916585336E+00
    0.58791560768105233237E+00
    0.59137385196506431218E+00
    0.59045266022586462284E+00
    0.59484340914324851379E+00
    0.59680901348636250514E+00
    0.60011280826921753473E+00
    0.60067685016722871527E+00
    0.59847436847624202461E+00
    0.59893075954158525587E+00
    0.59565334682449211368E+00
    0.59503340312481101115E+00
    0.58770590444715797851E+00
    0.58454515801693707200E+00
    0.57751562530581290744E+00
    0.57577340898675022363E+00
    0.58198007114087157987E+00
    0.58198883616680230357E+00
    0.58853730221995570471E+00
    0.59063927969867513479E+00
    0.59561741952018532054E+00
    0.59626908523875676860E+00
    0.59237987417940030088E+00
    0.59276098028587453914E+00
    0.58794753772595387264E+00
    0.58731627933347485548E+00
    0.56185923953621219606E+00
    0.55636480886638461918E+00
    0.54312875640894653362E+00
    0.54069641678561009002E+00
    0.55298564506220992953E+00
    0.55446332688431509972E+00
    0.56619678678300389141E+00
    0.56904064608107152168E+00
    0.57787890643492256793E+00
    0.57874194351738561526E+00
    0.57129161992896859701E+00
    0.57162905428580268463E+00
    0.56324825062672434495E+00
    0.56242298580762817295E+00
    0.57916294967933323878E+00
    0.57412630684770082912E+00
    0.56529945604453679664E+00
    0.56177762752583693118E+00
    0.56867207301724176371E+00
    0.56684524025589477780E+00
    0.57549128415265060621E+00
    0.57955866936819666613E+00
    0.58634758931959707340E+00
    0.58789027825386064308E+00
    0.58348741063877207491E+00
    0.58500336060627722290E+00
    0.57746646530116962914E+00
    0.57609084258225129460E+00
    0.54442393562279201014E+00
    0.53464774597782416254E+00
    0.51730329099333138831E+00
    0.51055315747755070088E+00
    0.52450422078447911378E+00
    0.52167869558807566932E+00
    0.53876482613207954397E+00
    0.54599284913886758641E+00
    0.55906237647717516026E+00
    0.56186133549460037795E+00
    0.55311991857342013290E+00
    0.55599166014102119338E+00
    0.54140555201869045021E+00
    0.53887427281213784447E+00
    0.60015060610309189926E+00
    0.59955707521966317142E+00
    0.59793296966814746263E+00
    0.59708042316171494601E+00
    0.59854882713467005839E+00
    0.59800446315861766067E+00
    0.60012399053645415492E+00
    0.60086486135915850859E+00
    0.60204952401206579538E+00
    0.60185882939983947892E+00
    0.60106244690233212591E+00
    0.60077081321838154970E+00
    0.60025978332372909030E+00
    0.60008298982095065188E+00
    0.59294052247553108437E+00
    0.58990330419428294029E+00
    0.58520972412784555416E+00
    0.58268549721340578973E+00
    0.58593797337972242101E+00
    0.58393987345299969149E+00
    0.58880472681195550333E+00
    0.59176285703029574137E+00
    0.59561099388231220075E+00
    0.59665787408621229204E+00
    0.59457298169506267449E+00
    0.59565863771751170752E+00
    0.59126587599129143413E+00
    0.59027249620737876068E+00
    0.59926340556741120036E+00
    0.59836705446514892870E+00
    0.59684449051386090357E+00
    0.59565262218891634749E+00
    0.59673492257453453202E+00
    0.59565381671930772711E+00
    0.59764853626873348791E+00
    0.59877697255634343421E+00
    0.59991817141249115242E+00
    0.59995389566259849090E+00
    0.59950930982745276321E+00
    0.59959196969814165801E+00
    0.59869439490447762253E+00
    0.59834772773997790818E+00
    0.59170296390301013734E+00
    0.58809881914447592610E+00
    0.58343666079808997882E+00
    0.58027787323033575007E+00
    0.58294747818159520225E+00
    0.57991555251465387588E+00
    0.58474519411582281947E+00
    0.58856778489725514181E+00
    0.59262475606058129252E+00
    0.59414661937058321772E+00
    0.59243430114196293790E+00
    0.59413824673702042567E+00
    0.58891464924328951192E+00
    0.58759250009610364263E+00
    0.57326011390441311555E+00
    0.56657042159785120372E+00
    0.55683874457505944111E+00
    0.55163265866226629530E+00
    0.55811437749926284813E+00
    0.55394539266920916898E+00
    0.56369009363721123140E+00
    0.56997102663328258476E+00
    0.57809069066400586845E+00
    0.58071666880883909823E+00
    0.57640881562249735026E+00
    0.57925121000966361962E+00
    0.56923249776279594148E+00
    0.56704893038598502830E+00
    0.53293263290988879266E+00
    0.51976502468889496100E+00
    0.50080317321591416579E+00
    0.49057871210289488717E+00
    0.50312884702928406533E+00
    0.49488111090949493676E+00
    0.51406386629289657630E+00
    0.52633196904843893016E+00
    0.54228794215492936992E+00
    0.54750142020636971552E+00
    0.53903023368067704002E+00
    0.54475123093871213875E+00