# vtk DataFile Version 3.0
LAPLACIEN  2D
ASCII
DATASET UNSTRUCTURED_GRID
 POINTS        1857  float
   3.1250000000000000E-002  0.93750000000000000        0.0000000000000000     
   6.2500000000000000E-002  0.93750000000000000        0.0000000000000000     
   6.2500000000000000E-002  0.96875000000000000        0.0000000000000000     
   1.8749999999999999E-002  0.95625000000000004        0.0000000000000000     
   4.0625000000000001E-002  0.95937499999999998        0.0000000000000000     
   4.3749999999999997E-002  0.98124999999999996        0.0000000000000000     
   2.1874999999999999E-002  0.97812500000000002        0.0000000000000000     
   9.3750000000000000E-002  0.93750000000000000        0.0000000000000000     
  0.12500000000000000       0.93750000000000000        0.0000000000000000     
  0.12500000000000000       0.96875000000000000        0.0000000000000000     
   8.1250000000000003E-002  0.95625000000000004        0.0000000000000000     
  0.10312499999999999       0.95937499999999998        0.0000000000000000     
  0.10625000000000000       0.98124999999999996        0.0000000000000000     
   8.4375000000000006E-002  0.97812500000000002        0.0000000000000000     
   3.1250000000000000E-002  0.87500000000000000        0.0000000000000000     
   6.2500000000000000E-002  0.87500000000000000        0.0000000000000000     
   6.2500000000000000E-002  0.90625000000000000        0.0000000000000000     
   1.8749999999999999E-002  0.89375000000000004        0.0000000000000000     
   4.0625000000000001E-002  0.89687499999999998        0.0000000000000000     
   4.3749999999999997E-002  0.91874999999999996        0.0000000000000000     
   2.1874999999999999E-002  0.91562500000000002        0.0000000000000000     
   9.3750000000000000E-002  0.87500000000000000        0.0000000000000000     
  0.12500000000000000       0.87500000000000000        0.0000000000000000     
  0.12500000000000000       0.90625000000000000        0.0000000000000000     
   8.1250000000000003E-002  0.89375000000000004        0.0000000000000000     
  0.10312499999999999       0.89687499999999998        0.0000000000000000     
  0.10625000000000000       0.91874999999999996        0.0000000000000000     
   8.4375000000000006E-002  0.91562500000000002        0.0000000000000000     
  0.15625000000000000       0.93750000000000000        0.0000000000000000     
  0.18750000000000000       0.93750000000000000        0.0000000000000000     
  0.18750000000000000       0.96875000000000000        0.0000000000000000     
  0.14374999999999999       0.95625000000000004        0.0000000000000000     
  0.16562499999999999       0.95937499999999998        0.0000000000000000     
  0.16875000000000001       0.98124999999999996        0.0000000000000000     
  0.14687500000000001       0.97812500000000002        0.0000000000000000     
  0.21875000000000000       0.93750000000000000        0.0000000000000000     
  0.25000000000000000       0.93750000000000000        0.0000000000000000     
  0.25000000000000000       0.96875000000000000        0.0000000000000000     
  0.20624999999999999       0.95625000000000004        0.0000000000000000     
  0.22812499999999999       0.95937499999999998        0.0000000000000000     
  0.23125000000000001       0.98124999999999996        0.0000000000000000     
  0.20937500000000001       0.97812500000000002        0.0000000000000000     
  0.15625000000000000       0.87500000000000000        0.0000000000000000     
  0.18750000000000000       0.87500000000000000        0.0000000000000000     
  0.18750000000000000       0.90625000000000000        0.0000000000000000     
  0.14374999999999999       0.89375000000000004        0.0000000000000000     
  0.16562499999999999       0.89687499999999998        0.0000000000000000     
  0.16875000000000001       0.91874999999999996        0.0000000000000000     
  0.14687500000000001       0.91562500000000002        0.0000000000000000     
  0.21875000000000000       0.87500000000000000        0.0000000000000000     
  0.25000000000000000       0.87500000000000000        0.0000000000000000     
  0.25000000000000000       0.90625000000000000        0.0000000000000000     
  0.20624999999999999       0.89375000000000004        0.0000000000000000     
  0.22812499999999999       0.89687499999999998        0.0000000000000000     
  0.23125000000000001       0.91874999999999996        0.0000000000000000     
  0.20937500000000001       0.91562500000000002        0.0000000000000000     
   3.1250000000000000E-002  0.81250000000000000        0.0000000000000000     
   6.2500000000000000E-002  0.81250000000000000        0.0000000000000000     
   6.2500000000000000E-002  0.84375000000000000        0.0000000000000000     
   1.8749999999999999E-002  0.83125000000000004        0.0000000000000000     
   4.0625000000000001E-002  0.83437499999999998        0.0000000000000000     
   4.3749999999999997E-002  0.85624999999999996        0.0000000000000000     
   2.1874999999999999E-002  0.85312500000000002        0.0000000000000000     
   9.3750000000000000E-002  0.81250000000000000        0.0000000000000000     
  0.12500000000000000       0.81250000000000000        0.0000000000000000     
  0.12500000000000000       0.84375000000000000        0.0000000000000000     
   8.1250000000000003E-002  0.83125000000000004        0.0000000000000000     
  0.10312499999999999       0.83437499999999998        0.0000000000000000     
  0.10625000000000000       0.85624999999999996        0.0000000000000000     
   8.4375000000000006E-002  0.85312500000000002        0.0000000000000000     
   3.1250000000000000E-002  0.75000000000000000        0.0000000000000000     
   6.2500000000000000E-002  0.75000000000000000        0.0000000000000000     
   6.2500000000000000E-002  0.78125000000000000        0.0000000000000000     
   1.8749999999999999E-002  0.76875000000000004        0.0000000000000000     
   4.0625000000000001E-002  0.77187499999999998        0.0000000000000000     
   4.3749999999999997E-002  0.79374999999999996        0.0000000000000000     
   2.1874999999999999E-002  0.79062500000000002        0.0000000000000000     
   9.3750000000000000E-002  0.75000000000000000        0.0000000000000000     
  0.12500000000000000       0.75000000000000000        0.0000000000000000     
  0.12500000000000000       0.78125000000000000        0.0000000000000000     
   8.1250000000000003E-002  0.76875000000000004        0.0000000000000000     
  0.10312499999999999       0.77187499999999998        0.0000000000000000     
  0.10625000000000000       0.79374999999999996        0.0000000000000000     
   8.4375000000000006E-002  0.79062500000000002        0.0000000000000000     
  0.15625000000000000       0.81250000000000000        0.0000000000000000     
  0.18750000000000000       0.81250000000000000        0.0000000000000000     
  0.18750000000000000       0.84375000000000000        0.0000000000000000     
  0.14374999999999999       0.83125000000000004        0.0000000000000000     
  0.16562499999999999       0.83437499999999998        0.0000000000000000     
  0.16875000000000001       0.85624999999999996        0.0000000000000000     
  0.14687500000000001       0.85312500000000002        0.0000000000000000     
  0.21875000000000000       0.81250000000000000        0.0000000000000000     
  0.25000000000000000       0.81250000000000000        0.0000000000000000     
  0.25000000000000000       0.84375000000000000        0.0000000000000000     
  0.20624999999999999       0.83125000000000004        0.0000000000000000     
  0.22812499999999999       0.83437499999999998        0.0000000000000000     
  0.23125000000000001       0.85624999999999996        0.0000000000000000     
  0.20937500000000001       0.85312500000000002        0.0000000000000000     
  0.15625000000000000       0.75000000000000000        0.0000000000000000     
  0.18750000000000000       0.75000000000000000        0.0000000000000000     
  0.18750000000000000       0.78125000000000000        0.0000000000000000     
  0.14374999999999999       0.76875000000000004        0.0000000000000000     
  0.16562499999999999       0.77187499999999998        0.0000000000000000     
  0.16875000000000001       0.79374999999999996        0.0000000000000000     
  0.14687500000000001       0.79062500000000002        0.0000000000000000     
  0.21875000000000000       0.75000000000000000        0.0000000000000000     
  0.25000000000000000       0.75000000000000000        0.0000000000000000     
  0.25000000000000000       0.78125000000000000        0.0000000000000000     
  0.20624999999999999       0.76875000000000004        0.0000000000000000     
  0.22812499999999999       0.77187499999999998        0.0000000000000000     
  0.23125000000000001       0.79374999999999996        0.0000000000000000     
  0.20937500000000001       0.79062500000000002        0.0000000000000000     
  0.28125000000000000       0.93750000000000000        0.0000000000000000     
  0.31250000000000000       0.93750000000000000        0.0000000000000000     
  0.31250000000000000       0.96875000000000000        0.0000000000000000     
  0.26874999999999999       0.95625000000000004        0.0000000000000000     
  0.29062500000000002       0.95937499999999998        0.0000000000000000     
  0.29375000000000001       0.98124999999999996        0.0000000000000000     
  0.27187499999999998       0.97812500000000002        0.0000000000000000     
  0.34375000000000000       0.93750000000000000        0.0000000000000000     
  0.37500000000000000       0.93750000000000000        0.0000000000000000     
  0.37500000000000000       0.96875000000000000        0.0000000000000000     
  0.33124999999999999       0.95625000000000004        0.0000000000000000     
  0.35312500000000002       0.95937499999999998        0.0000000000000000     
  0.35625000000000001       0.98124999999999996        0.0000000000000000     
[...]
 CELL_DATA        3584
 SCALARS Nutrients float
 LOOKUP_TABLE default
    0.61715960202178477001E+00
    0.61719325922974654919E+00
    0.61689305275420736052E+00
    0.61689305248767734025E+00
    0.61719325856511841888E+00
    0.61715960077472986622E+00
    0.61739041708932540509E+00
    0.61752560029183500845E+00
    0.61767349608240817993E+00
    0.61767349741905497318E+00
    0.61752560212272911144E+00
    0.61739041890693124870E+00
    0.61740905651929200992E+00
    0.61740905611614838033E+00
    0.61617352517377244059E+00
    0.61594924222353730769E+00
    0.61528175422797304339E+00
    0.61516588141615125007E+00
    0.61568111363461652807E+00
    0.61552450305543293663E+00
    0.61598902334457772412E+00
    0.61637969470637321567E+00
    0.61682534827509294395E+00
    0.61698804382227923071E+00
    0.61668400371429354934E+00
    0.61670467711021481616E+00
    0.61627286848734130764E+00
    0.61618894030072002277E+00
    0.61552450484249610074E+00
    0.61568111493694277492E+00
    0.61516588169859454105E+00
    0.61528175627135628378E+00
    0.61594924387904015362E+00
    0.61617352667613634054E+00
    0.61670467831136976944E+00
    0.61668400437665815694E+00
    0.61698804393910089416E+00
    0.61682534956994494735E+00
    0.61637969677978821093E+00
    0.61598902568525870649E+00
    0.61618894178461625089E+00
    0.61627286983396867281E+00
    0.61407020504548071038E+00
    0.61388462949805600033E+00
    0.61278163239847371901E+00
    0.61278163307324218234E+00
    0.61388462870859417109E+00
    0.61407020294813641215E+00
    0.61501216190842100673E+00
    0.61523737164137437539E+00
    0.61595605853034574029E+00
    0.61595606024302174131E+00
    0.61523737368506359324E+00
    0.61501216385776158457E+00
    0.61462896300328195842E+00
    0.61462896256087407032E+00
    0.61389628733216827783E+00
    0.61349622687180516145E+00
    0.61244514482247447429E+00
    0.61229511901742350588E+00
    0.61308240193175178590E+00
    0.61287377851506763538E+00
    0.61355436107712202354E+00
    0.61415970245925421978E+00
    0.61488710498748666566E+00
    0.61519039731663016646E+00
    0.61469193365903485038E+00
    0.61479491261466134855E+00
    0.61399947832971535355E+00
    0.61386077219339096889E+00
    0.61045180720206115854E+00
    0.61000723551156033064E+00
    0.60860460286882189784E+00
    0.60853679327499421436E+00
    0.60963036058629860303E+00
    0.60947088134829918715E+00
    0.61031213128564576476E+00
    0.61105004452767808232E+00
    0.61200373267634811114E+00
    0.61240435803474535525E+00
    0.61168391627874985073E+00
    0.61176617922125109406E+00
    0.61076094015367432544E+00
    0.61061274738202930834E+00
    0.61061485192874642713E+00
    0.61023174564909987705E+00
    0.60842407281036181566E+00
    0.60847121321866615151E+00
    0.61023034205329940161E+00
    0.61057543918853707243E+00
    0.61202039285056231144E+00
    0.61237975930617638554E+00
    0.61356294805374189671E+00
    0.61363859047359803345E+00
    0.61247571412072410180E+00
    0.61223352855577739540E+00
    0.61142576129391568163E+00
    0.61141148542386625220E+00
    0.60514464676302393009E+00
    0.60480381296704610605E+00
    0.60223067742824865078E+00
    0.60257039230620679238E+00
    0.60519271105771521579E+00
    0.60595612582974511806E+00
    0.60794785734885636863E+00
    0.60826732795735261039E+00
    0.60992360890378716221E+00
    0.60995220412404915766E+00
    0.60816089398019734791E+00
    0.60765389399899583101E+00
    0.60669051198337820008E+00
    0.60676311955119355268E+00
    0.61287377627400085878E+00
    0.61308239774779349496E+00
    0.61229511531466551677E+00
    0.61244514323346699314E+00
    0.61349622379293911045E+00
    0.61389628641074245330E+00
    0.61479491212703274439E+00
    0.61469193087897544547E+00
    0.61519039683585652334E+00
    0.61488710417611913694E+00
    0.61415969945410675557E+00
    0.61355435863764329341E+00
    0.61386076683141210797E+00
    0.61399947320859971089E+00
    0.61057543964369342948E+00
    0.61023034227512984451E+00
    0.60847121203608056650E+00
    0.60842407338443338372E+00
    0.61023174516162426162E+00
    0.61061485053260733391E+00
    0.61223352791862994948E+00
    0.61247571432430103489E+00
    0.61363859133380949107E+00
    0.61356294868647842655E+00
    0.61237975945447686854E+00
    0.61202039191397794582E+00
    0.61141148565558678385E+00
    0.61142576144817772921E+00
    0.60947087937034616356E+00
    0.60963035649140928651E+00
    0.60853678910948405534E+00
    0.60860460083459855252E+00
    0.61000723140932333610E+00
    0.61045180388525999149E+00
    0.61176617548691725190E+00
    0.61168391154879175886E+00
    0.61240435456063502251E+00
    0.61200372976566008720E+00
    0.61105004090573422637E+00
    0.61031212858543448796E+00
    0.61061274217480676629E+00
    0.61076093479256998720E+00
    0.60595612658520747740E+00
    0.60519271087549642019E+00
    0.60257039058007033638E+00
    0.60223067739986213542E+00
    0.60480381176886599537E+00
    0.60514464528252576159E+00
    0.60765389272347880567E+00
    0.60816089302046372200E+00
    0.60995220353449164374E+00
    0.60992360756658914323E+00
    0.60826732706195119071E+00
    0.60794785628819159040E+00
    0.60676311886358968994E+00
    0.60669051113781058415E+00
    0.60489923754559582481E+00
    0.60416796640276348995E+00
    0.60110175035798751875E+00
    0.60110175118673370154E+00
    0.60416796553394547242E+00
    0.60489923544642376640E+00
    0.60752062467020517822E+00
    0.60792923179874902573E+00
    0.60992782518703481109E+00
    0.60992782496624298183E+00
    0.60792923216846539436E+00
    0.60752062565908437897E+00
    0.60617322903228199049E+00
    0.60617322885368996044E+00
    0.59528882319455755923E+00
    0.59452110404174629554E+00
    0.58979839760069396881E+00
    0.59031790745082557414E+00
    0.59524764718672340535E+00
    0.59688831072134052036E+00
    0.60075902902977140752E+00
    0.60101815788968904197E+00
    0.60400158930027192383E+00
    0.60384944204994994710E+00
    0.60056759924263569683E+00
    0.59965749025708225961E+00
    0.59793401078640950885E+00
    0.59810654670709917369E+00
    0.59688831282621468421E+00
    0.59524764759539272596E+00
    0.59031790582387144717E+00
    0.58979839761035890433E+00
    0.59452110263919799582E+00
    0.59528882118924308919E+00
    0.59965748909011085122E+00
    0.60056759887376842677E+00
    0.60384944301988840998E+00
    0.60400158949558935273E+00
    0.60101815814774339763E+00
    0.60075902963836536053E+00
    0.59810654647201388912E+00
    0.59793401018682523773E+00
    0.58015047112797835105E+00
    0.57784709407401735337E+00
    0.56935955693001161215E+00
    0.56935955760083634125E+00
    0.57784709284920288130E+00
    0.58015046841993944682E+00
    0.58721512034887946019E+00
    0.58805987450370311720E+00
    0.59339335889396238599E+00
    0.59339335840271800748E+00
    0.58805987478360477461E+00
    0.58721512115042007185E+00
    0.58324648835864345564E+00
    0.58324648812919499541E+00
    0.60618930703196738374E+00
    0.60588908082101289310E+00
    0.60425174699406691836E+00
    0.60440305644913072669E+00
    0.60578332851615956933E+00
    0.60579183130181846195E+00
    0.60669145092084941773E+00
    0.60743131561393826079E+00
    0.60849834236949496002E+00
    0.60892349241089094303E+00
    0.60798268363936869285E+00
    0.60791005934487696294E+00
    0.60693882350515993007E+00
    0.60684247110535682879E+00
    0.60175761375164793510E+00
    0.60180777547150887674E+00
    0.60013750683148636700E+00
    0.60062002792408442087E+00
    0.60219605956466304431E+00
    0.60247368545057133904E+00
    0.60329806239324068606E+00
    0.60388285320526347011E+00
    0.60490060335732009911E+00
    0.60525485185732352811E+00
    0.60414293269634466998E+00
    0.60377905010315768841E+00
    0.60314186717857931619E+00
    0.60316064255151324858E+00
    0.59802876364141521748E+00
    0.59811258768449460099E+00
    0.59489530526525058463E+00
    0.59582962418430818197E+00
    0.59939234811779962264E+00
    0.60083995949007218407E+00
    0.60331014132133697903E+00
    0.60335397508643484610E+00
    0.60539407530133915181E+00
    0.60520984231148544641E+00
    0.60265071140255743742E+00
    0.60155747686325777845E+00
    0.60089145843366076338E+00
    0.60118213511233187241E+00
    0.59035831473757027776E+00
    0.59129613615756448919E+00
    0.58779880864478595281E+00
    0.58954820300563526292E+00
    0.59388999479733639575E+00
    0.59617208475356486819E+00
    0.59891611074873352116E+00
    0.59845453454429486939E+00
    0.60066457347919122167E+00
    0.60009645891123453154E+00
    0.59677525144192500317E+00
    0.59479227410753887639E+00
    0.59499039205844761469E+00
    0.59561672081757399688E+00
    0.59799052488570259012E+00
    0.59853874024281072952E+00
    0.59706563193639161646E+00
    0.59792289114564545205E+00
    0.59955170173258265365E+00
    0.60014732421682304153E+00
    0.60076840695576483320E+00
    0.60105984944611590137E+00
    0.60185700910845318923E+00
    0.60204745098855316776E+00
    0.60086057417269156389E+00
    0.60011680301179448627E+00
    0.60007762598916569718E+00
    0.60025531818981603394E+00
    0.59563408096784464796E+00
    0.59672125917431706466E+00
    0.59563406009759789494E+00
    0.59683216436157981999E+00
    0.59835999502167458441E+00
    0.59925902444847622963E+00
    0.59958832422562957642E+00
    0.59950523818401968423E+00
    0.59995069245867949093E+00
    0.59991464649346493143E+00
    0.59877045637392356525E+00
    0.59763780700798974088E+00
    0.59834010790532898838E+00
    0.59868804283890786344E+00
    0.58376520817111821060E+00
    0.58580422370044127334E+00
    0.58249485022977420812E+00
    0.58507281103461028504E+00
    0.58982943949890020985E+00
    0.59289984305726672886E+00
    0.59563578391113547461E+00
    0.59454044708559761201E+00
    0.59663714056506289563E+00
    0.59558199306363257541E+00
    0.59170225310534452223E+00
    0.58870761826934836503E+00
    0.59019924719930294543E+00
    0.59120516277155599205E+00
    0.57966497714650977446E+00
    0.58276892364541388325E+00
    0.58003986634686988122E+00
    0.58327334095820015936E+00
    0.58800871227009454678E+00
    0.59165530490321238677E+00
    0.59410991922309619451E+00
    0.59239157507479822673E+00
    0.59411742789563970479E+00
    0.59258249073847579780E+00
    0.58848136656615657181E+00
    0.58460040285019565509E+00
    0.58749449360567740364E+00
    0.58883546375140827234E+00
    0.58170992274504951247E+00
    0.58170646287655858320E+00
    0.57534664827127179887E+00
    0.57714793018089916021E+00
    0.58433569249999028905E+00
    0.58756269626973733899E+00
    0.59268129468996977316E+00
    0.59228923854064818855E+00
    0.59621562185030163583E+00
    0.59555535376355339672E+00
    0.59051929350839316157E+00
    0.58838291530941699836E+00
    0.58715026649097123990E+00
    0.58779501329878347526E+00
    0.56610875136208926861E+00
    0.56801226684416883383E+00
    0.56081454698419674898E+00
    0.56451130697454432461E+00
    0.57367110784320174410E+00
    0.57886969899452545008E+00
    0.58483449511771301577E+00
    0.58327925317431017493E+00
    0.58775943839431354920E+00
    0.58618565837750624681E+00
    0.57924898845256000968E+00
    0.57506401263316697658E+00
    0.57569249129240640528E+00
    0.57711235364994561969E+00
    0.55316269810356377690E+00
    0.55159855580757599647E+00
    0.53866081533207543774E+00
    0.54119072592637207375E+00
    0.55513227300344425430E+00
    0.56089858745349463476E+00
    0.57105902764824423290E+00
    0.57069819655849285400E+00
    0.57838169145502127400E+00
    0.57749072306165105672E+00
    0.56835971608381763431E+00
    0.56541135486751237238E+00
    0.56147966451898234652E+00
    0.56234061875248297913E+00
    0.51838111735576142269E+00
    0.52117325452343177261E+00
    0.50609242185725678009E+00
    0.51313739391727120065E+00
    0.53188693688050781017E+00
    0.54236326949620849991E+00
    0.55470233467380425374E+00
    0.55167064149271194395E+00
    0.56090345760124848962E+00
    0.55796880374237101119E+00
    0.54415367611745135701E+00
    0.53653999494890902699E+00
    0.53653378258552220093E+00
    0.53920850596282765554E+00
    0.55250242051865139370E+00
    0.55691401009997421045E+00
    0.54998871534350401991E+00
    0.55555413482143367609E+00
    0.56581469616437485293E+00
    0.57279766862451697573E+00
    0.57897393501486904555E+00
    0.57604203923506447360E+00
    0.58047179114911529041E+00
    0.57777209745543689490E+00
    0.56937031212118516255E+00
    0.56281603507493316307E+00
    0.56632412335332715791E+00
    0.56860581694666267882E+00
    0.54413960004577943685E+00
    0.55084419958072872170E+00
    0.54502753007938509189E+00
    0.55198409512721291481E+00
    0.56232440113919279767E+00
    0.57050732110656598994E+00
    0.57626970268665644870E+00
    0.57210155639138382533E+00
    0.57594078082290145471E+00
    0.57221286078056132762E+00
    0.56314784015396113226E+00
    0.55461210848983111266E+00
    0.56108513815513560985E+00
    0.56407881829538275564E+00
    0.48853456092399966115E+00
    0.49708106616436159575E+00
    0.48302300439179524094E+00
    0.49400671527516260007E+00
    0.51510354835489846614E+00
    0.52959784986758728920E+00
    0.54255061141405569458E+00
    0.53638242656597923119E+00
    0.54561761590129254085E+00
    0.54003980773978410568E+00
    0.52268531271919282943E+00
    0.50948451165530417306E+00
    0.51627405238261814269E+00
    0.52092939308842267643E+00
    0.47122363569728054067E+00
    0.48438949630006666869E+00
    0.47280144005435997823E+00
    0.48653964246396930182E+00
    0.50776273421379924944E+00
    0.52482981728268829347E+00
    0.53700412769300753801E+00
    0.52817937504912226832E+00
    0.53624126427251517235E+00
    0.52838073631013782183E+00
    0.50951247264419508021E+00
    0.49205964719389372330E+00
    0.50522064793239385150E+00
    0.51139255440043418499E+00
    0.60579183067178776767E+00
    0.60578332522311306718E+00
    0.60440305222677359609E+00
    0.60425174484758903404E+00
    0.60588907683181913999E+00
    0.60618930372205459545E+00
    0.60791005530340214147E+00
    0.60798267914366643794E+00
    0.60892348933410156420E+00
    0.60849833994012325622E+00
    0.60743131296639718553E+00
    0.60669144947469977325E+00
    0.60684246685433607116E+00
    0.60693881884775335855E+00
    0.60083996076204448933E+00
    0.59939234822141540526E+00
    0.59582962267573513770E+00
    0.59489530543236313065E+00
    0.59811258667103173181E+00
    0.59802876234408530731E+00
    0.60155747525961988931E+00
    0.60265071050375063066E+00
    0.60520984215269413298E+00
    0.60539407419773150210E+00
    0.60335397435085647011E+00
    0.60331014034495822340E+00
    0.60118213455417168767E+00
    0.60089145768384866209E+00
    0.60247368522149402637E+00
    0.60219605697481759510E+00
    0.60062002408576220525E+00
    0.60013750513221453264E+00
    0.60180777217752401409E+00
    0.60175761091594970331E+00
    0.60377904612404653673E+00
    0.60414292898024224421E+00
    0.60525485013278090829E+00
    0.60490060240606269293E+00
    0.60388285181357914677E+00
    0.60329806145718578581E+00
    0.60316063939718422837E+00
    0.60314186352289100856E+00
    0.59617208653972142418E+00
    0.59388999531679698141E+00
    0.58954820176193789560E+00
    0.58779880911453818992E+00
    0.59129613552974702451E+00
    0.59035831388894532967E+00
    0.59479227279650603855E+00
    0.59677525101807860075E+00
    0.60009645938068034710E+00
    0.60066457295533581817E+00
    0.59845453432641426694E+00
    0.59891611024575563960E+00
    0.59561672070713378435E+00
    0.59499039174406154196E+00
    0.58756269886311784933E+00
    0.58433569333665424939E+00
    0.57714792908250245329E+00
    0.57534664875860930255E+00
    0.58170646196308517517E+00
    0.58170992157212342288E+00
    0.58838291382155682996E+00
    0.59051929321476170909E+00
    0.59555535495047473571E+00
    0.59621562234249714241E+00
    0.59228923906500474672E+00
    0.59268129553944104426E+00
    0.58779501337628403679E+00
    0.58715026617867560610E+00
    0.56089859145304088450E+00
    0.55513227556421551601E+00
    0.54119072799870515666E+00
    0.53866081839975221701E+00
    0.55159855578577621227E+00
    0.55316269656608163530E+00
    0.56541135401915809666E+00
    0.56835971647978589250E+00
    0.57749072482619001612E+00
    0.57838169228171421032E+00
    0.57069819763401818946E+00
    0.57105902905820582482E+00
    0.56234061973270665913E+00
    0.56147966500763601960E+00
    0.57886970186159769636E+00
    0.57367110911961649578E+00
    0.56451130629287615825E+00
    0.56081454838954014619E+00
    0.56801226698854145880E+00
    0.56610875152414197320E+00
    0.57506401186549549465E+00
    0.57924898883008357764E+00
    0.58618566013471007370E+00
    0.58775943941301722617E+00
    0.58327925419966386578E+00
    0.58483449629651629298E+00
    0.57711235433838137254E+00
    0.57569249171080527638E+00
    0.54236327467199108021E+00
    0.53188694304489370079E+00
    0.51313740124532591924E+00
    0.50609243516020940845E+00
    0.52117326300313138177E+00
    0.51838112610519115897E+00
    0.53653999862889167893E+00
    0.54415368009613485079E+00
    0.55796880728223741119E+00
    0.56090346007375091464E+00
    0.55167064486190942052E+00
    0.55470233732644758096E+00
    0.53920851091573163139E+00
    0.53653378795387662858E+00
    0.60014732472185805534E+00
    0.59955169968163279925E+00
    0.59792288743468002821E+00
    0.59706563037972870678E+00
    0.59853873737083573836E+00
    0.59799052244825534608E+00
    0.60011679936964568149E+00
    0.60086057091151900966E+00
    0.60204744989388436771E+00
    0.60185700896350946554E+00
    0.60105984864492778552E+00
    0.60076840649159135577E+00
    0.60025531570520840319E+00
    0.60007762295370947747E+00
    0.59289984456279287706E+00
    0.58982943978549329245E+00
    0.58507280921806181784E+00
    0.58249485026061786908E+00
    0.58580422299720957824E+00
    0.58376520740721604685E+00
    0.58870761717206876451E+00
    0.59170225296138523330E+00
    0.59558199401961098296E+00
    0.59663714045605820147E+00
    0.59454044706146769173E+00
    0.59563578346353041049E+00
    0.59120516270860423713E+00
    0.59019924696716408175E+00
    0.59925902388815766031E+00
    0.59835999239843384867E+00
    0.59683215977987591483E+00
    0.59563405714208705888E+00
    0.59672125571269707400E+00
    0.59563407806529167221E+00
    0.59763780336202287913E+00
    0.59877045341413415169E+00
    0.59991464628970880835E+00
    0.59995069332836747922E+00
    0.59950523748111761435E+00
    0.59958832309867249322E+00
    0.59868804023817911997E+00
    0.59834010478002175315E+00
    0.59165530224879259169E+00
    0.58800870938229465867E+00
    0.58327333592902286252E+00
    0.58003986274015784108E+00
    0.58276892066153751504E+00
    0.57966497475060008160E+00
    0.58460040087563192035E+00
    0.58848136540663698035E+00
    0.59258249118598516070E+00
    0.59411742712530291044E+00
    0.59239157347445603463E+00
    0.59410991658445311270E+00
    0.58883546166669742394E+00
    0.58749449157485933437E+00
    0.57279767030618644608E+00
    0.56581469619619417788E+00
    0.55555413191038005571E+00
    0.54998871429302675917E+00
    0.55691400912165367476E+00
    0.55250242012859740459E+00
    0.56281603438561378372E+00
    0.56937031240181723568E+00
    0.57777209937071094537E+00
    0.58047179222511713359E+00
    0.57604203992761071618E+00
    0.57897393563488175339E+00
    0.56860581699850420989E+00
    0.56632412318567604270E+00
    0.52959784878065996327E+00
    0.51510354514384615321E+00
    0.49400670603716934082E+00
    0.48302299500359119344E+00
    0.49708106402647994626E+00
    0.48853456518793147989E+00
    0.50948451723215826270E+00
    0.52268531563358444636E+00
    0.54003981147094759496E+00
    0.54561761764151539555E+00
    0.53638242677839220729E+00
    0.54255061066521159674E+00