# vtk DataFile Version 3.0
LAPLACIEN  2D
ASCII
DATASET UNSTRUCTURED_GRID
 POINTS        1857  float
   3.1250000000000000E-002  0.93750000000000000        0.0000000000000000     
   6.2500000000000000E-002  0.93750000000000000        0.0000000000000000     
   6.2500000000000000E-002  0.96875000000000000        0.0000000000000000     
   1.8749999999999999E-002  0.95625000000000004        0.0000000000000000     
   4.0625000000000001E-002  0.95937499999999998        0.0000000000000000     
   4.3749999999999997E-002  0.98124999999999996        0.0000000000000000     
   2.1874999999999999E-002  0.97812500000000002        0.0000000000000000     
   9.3750000000000000E-002  0.93750000000000000        0.0000000000000000     
  0.12500000000000000       0.93750000000000000        0.0000000000000000     
  0.12500000000000000       0.96875000000000000        0.0000000000000000     
   8.1250000000000003E-002  0.95625000000000004        0.0000000000000000     
  0.10312499999999999       0.95937499999999998        0.0000000000000000     
  0.10625000000000000       0.98124999999999996        0.0000000000000000     
   8.4375000000000006E-002  0.97812500000000002        0.0000000000000000     
   3.1250000000000000E-002  0.87500000000000000        0.0000000000000000     
   6.2500000000000000E-002  0.87500000000000000        0.0000000000000000     
   6.2500000000000000E-002  0.90625000000000000        0.0000000000000000     
   1.8749999999999999E-002  0.89375000000000004        0.0000000000000000     
   4.0625000000000001E-002  0.89687499999999998        0.0000000000000000     
   4.3749999999999997E-002  0.91874999999999996        0.0000000000000000     
   2.1874999999999999E-002  0.91562500000000002        0.0000000000000000     
   9.3750000000000000E-002  0.87500000000000000        0.0000000000000000     
  0.12500000000000000       0.87500000000000000        0.0000000000000000     
  0.12500000000000000       0.90625000000000000        0.0000000000000000     
   8.1250000000000003E-002  0.89375000000000004        0.0000000000000000     
  0.10312499999999999       0.89687499999999998        0.0000000000000000     
  0.10625000000000000       0.91874999999999996        0.0000000000000000     
   8.4375000000000006E-002  0.91562500000000002        0.0000000000000000     
  0.15625000000000000       0.93750000000000000        0.0000000000000000     
  0.18750000000000000       0.93750000000000000        0.0000000000000000     
  0.18750000000000000       0.96875000000000000        0.0000000000000000     
  0.14374999999999999       0.95625000000000004        0.0000000000000000     
  0.16562499999999999       0.95937499999999998        0.0000000000000000     
  0.16875000000000001       0.98124999999999996        0.0000000000000000     
  0.14687500000000001       0.97812500000000002        0.0000000000000000     
  0.21875000000000000       0.93750000000000000        0.0000000000000000     
  0.25000000000000000       0.93750000000000000        0.0000000000000000     
  0.25000000000000000       0.96875000000000000        0.0000000000000000     
  0.20624999999999999       0.95625000000000004        0.0000000000000000     
  0.22812499999999999       0.95937499999999998        0.0000000000000000     
  0.23125000000000001       0.98124999999999996        0.0000000000000000     
  0.20937500000000001       0.97812500000000002        0.0000000000000000     
  0.15625000000000000       0.87500000000000000        0.0000000000000000     
  0.18750000000000000       0.87500000000000000        0.0000000000000000     
  0.18750000000000000       0.90625000000000000        0.0000000000000000     
  0.14374999999999999       0.89375000000000004        0.0000000000000000     
  0.16562499999999999       0.89687499999999998        0.0000000000000000     
  0.16875000000000001       0.91874999999999996        0.0000000000000000     
  0.14687500000000001       0.91562500000000002        0.0000000000000000     
  0.21875000000000000       0.87500000000000000        0.0000000000000000     
  0.25000000000000000       0.87500000000000000        0.0000000000000000     
  0.25000000000000000       0.90625000000000000        0.0000000000000000     
  0.20624999999999999       0.89375000000000004        0.0000000000000000     
  0.22812499999999999       0.89687499999999998        0.0000000000000000     
  0.23125000000000001       0.91874999999999996        0.0000000000000000     
  0.20937500000000001       0.91562500000000002        0.0000000000000000     
   3.1250000000000000E-002  0.81250000000000000        0.0000000000000000     
   6.2500000000000000E-002  0.81250000000000000        0.0000000000000000     
   6.2500000000000000E-002  0.84375000000000000        0.0000000000000000     
   1.8749999999999999E-002  0.83125000000000004        0.0000000000000000     
   4.0625000000000001E-002  0.83437499999999998        0.0000000000000000     
   4.3749999999999997E-002  0.85624999999999996        0.0000000000000000     
   2.1874999999999999E-002  0.85312500000000002        0.0000000000000000     
   9.3750000000000000E-002  0.81250000000000000        0.0000000000000000     
  0.12500000000000000       0.81250000000000000        0.0000000000000000     
  0.12500000000000000       0.84375000000000000        0.0000000000000000     
   8.1250000000000003E-002  0.83125000000000004        0.0000000000000000     
  0.10312499999999999       0.83437499999999998        0.0000000000000000     
  0.10625000000000000       0.85624999999999996        0.0000000000000000     
   8.4375000000000006E-002  0.85312500000000002        0.0000000000000000     
   3.1250000000000000E-002  0.75000000000000000        0.0000000000000000     
   6.2500000000000000E-002  0.75000000000000000        0.0000000000000000     
   6.2500000000000000E-002  0.78125000000000000        0.0000000000000000     
   1.8749999999999999E-002  0.76875000000000004        0.0000000000000000     
   4.0625000000000001E-002  0.77187499999999998        0.0000000000000000     
   4.3749999999999997E-002  0.79374999999999996        0.0000000000000000     
   2.1874999999999999E-002  0.79062500000000002        0.0000000000000000     
   9.3750000000000000E-002  0.75000000000000000        0.0000000000000000     
  0.12500000000000000       0.75000000000000000        0.0000000000000000     
  0.12500000000000000       0.78125000000000000        0.0000000000000000     
   8.1250000000000003E-002  0.76875000000000004        0.0000000000000000     
  0.10312499999999999       0.77187499999999998        0.0000000000000000     
  0.10625000000000000       0.79374999999999996        0.0000000000000000     
   8.4375000000000006E-002  0.79062500000000002        0.0000000000000000     
  0.15625000000000000       0.81250000000000000        0.0000000000000000     
  0.18750000000000000       0.81250000000000000        0.0000000000000000     
  0.18750000000000000       0.84375000000000000        0.0000000000000000     
  0.14374999999999999       0.83125000000000004        0.0000000000000000     
  0.16562499999999999       0.83437499999999998        0.0000000000000000     
  0.16875000000000001       0.85624999999999996        0.0000000000000000     
  0.14687500000000001       0.85312500000000002        0.0000000000000000     
  0.21875000000000000       0.81250000000000000        0.0000000000000000     
  0.25000000000000000       0.81250000000000000        0.0000000000000000     
  0.25000000000000000       0.84375000000000000        0.0000000000000000     
  0.20624999999999999       0.83125000000000004        0.0000000000000000     
  0.22812499999999999       0.83437499999999998        0.0000000000000000     
  0.23125000000000001       0.85624999999999996        0.0000000000000000     
  0.20937500000000001       0.85312500000000002        0.0000000000000000     
  0.15625000000000000       0.75000000000000000        0.0000000000000000     
  0.18750000000000000       0.75000000000000000        0.0000000000000000     
  0.18750000000000000       0.78125000000000000        0.0000000000000000     
  0.14374999999999999       0.76875000000000004        0.0000000000000000     
  0.16562499999999999       0.77187499999999998        0.0000000000000000     
  0.16875000000000001       0.79374999999999996        0.0000000000000000     
  0.14687500000000001       0.79062500000000002        0.0000000000000000     
  0.21875000000000000       0.75000000000000000        0.0000000000000000     
  0.25000000000000000       0.75000000000000000        0.0000000000000000     
  0.25000000000000000       0.78125000000000000        0.0000000000000000     
  0.20624999999999999       0.76875000000000004        0.0000000000000000     
  0.22812499999999999       0.77187499999999998        0.0000000000000000     
  0.23125000000000001       0.79374999999999996        0.0000000000000000     
  0.20937500000000001       0.79062500000000002        0.0000000000000000     
  0.28125000000000000       0.93750000000000000        0.0000000000000000     
  0.31250000000000000       0.93750000000000000        0.0000000000000000     
  0.31250000000000000       0.96875000000000000        0.0000000000000000     
  0.26874999999999999       0.95625000000000004        0.0000000000000000     
  0.29062500000000002       0.95937499999999998        0.0000000000000000     
  0.29375000000000001       0.98124999999999996        0.0000000000000000     
  0.27187499999999998       0.97812500000000002        0.0000000000000000     
  0.34375000000000000       0.93750000000000000        0.0000000000000000     
  0.37500000000000000       0.93750000000000000        0.0000000000000000     
  0.37500000000000000       0.96875000000000000        0.0000000000000000     
  0.33124999999999999       0.95625000000000004        0.0000000000000000     
  0.35312500000000002       0.95937499999999998        0.0000000000000000     
  0.35625000000000001       0.98124999999999996        0.0000000000000000     
[...]
 CELL_DATA        3584
 SCALARS Nutrients float
 LOOKUP_TABLE default
    0.61715936156147399583E+00
    0.61719299985449738166E+00
    0.61689279098035343374E+00
    0.61689279097376537031E+00
    0.61719299975130237357E+00
    0.61715936150401140559E+00
    0.61739019153092100645E+00
    0.61752536085565501445E+00
    0.61767328509036278916E+00
    0.61767328633199580779E+00
    0.61752536231745369655E+00
    0.61739019240548098644E+00
    0.61740874622066033162E+00
    0.61740874593919270463E+00
    0.61617307096127837962E+00
    0.61594867408012543564E+00
    0.61528095870705390436E+00
    0.61516507131218578497E+00
    0.61568047802620207154E+00
    0.61552387648954931532E+00
    0.61598850693412410262E+00
    0.61637924571500168902E+00
    0.61682502678550421571E+00
    0.61698777222924261476E+00
    0.61668364440487877243E+00
    0.61670437156922353061E+00
    0.61627233104376422101E+00
    0.61618837990602115529E+00
    0.61552387754477766446E+00
    0.61568047857241725573E+00
    0.61516507073481641044E+00
    0.61528096054070835486E+00
    0.61594867535248087886E+00
    0.61617307159097556291E+00
    0.61670437223320528908E+00
    0.61668364421556365329E+00
    0.61698777102177082554E+00
    0.61682502658269344753E+00
    0.61637924673853772273E+00
    0.61598850841363372854E+00
    0.61618838069323611517E+00
    0.61627233179366425198E+00
    0.61406853538559669214E+00
    0.61388264452454743836E+00
    0.61277836606460078794E+00
    0.61277836686237430186E+00
    0.61388264366373823666E+00
    0.61406853352574330973E+00
    0.61501118413453670364E+00
    0.61523644652636888530E+00
    0.61595552186706459263E+00
    0.61595552287209354159E+00
    0.61523644782482578286E+00
    0.61501118589145853388E+00
    0.61462755516517819654E+00
    0.61462755483045794502E+00
    0.61389467952050635891E+00
    0.61349444191229973722E+00
    0.61244245749180536986E+00
    0.61229260306547816928E+00
    0.61308067759548112718E+00
    0.61287222239543648339E+00
    0.61355311203265272546E+00
    0.61415859763333913168E+00
    0.61488628600800909751E+00
    0.61518966971383470810E+00
    0.61469094267783441765E+00
    0.61479392448326963816E+00
    0.61399810034297019889E+00
    0.61385938585699983960E+00
    0.61044663184721226212E+00
    0.61000209949419759159E+00
    0.60859673754433163406E+00
    0.60852997186903001747E+00
    0.60962609934031464221E+00
    0.60946741120111669332E+00
    0.61030942529682574715E+00
    0.61104754926880333610E+00
    0.61200185749412494562E+00
    0.61240258489069065995E+00
    0.61168131632798850017E+00
    0.61176316161919197523E+00
    0.61075747842780914176E+00
    0.61060942568802445418E+00
    0.61060719327454371363E+00
    0.61022317560577399309E+00
    0.60840985647849166185E+00
    0.60845774638443017590E+00
    0.61022249469343503581E+00
    0.61056927526423621089E+00
    0.61201689453446872502E+00
    0.61237631821918869779E+00
    0.61356095775053498542E+00
    0.61363654363569064554E+00
    0.61247200800546108823E+00
    0.61222933257273803864E+00
    0.61142023173335224850E+00
    0.61140609713847748896E+00
    0.60511441809925037294E+00
    0.60477266211161495590E+00
    0.60218094537480537642E+00
    0.60252574586494478392E+00
    0.60516692162656759990E+00
    0.60593723980995861655E+00
    0.60793717488569953833E+00
    0.60825600016780489998E+00
    0.60991690288794597752E+00
    0.60994482799005056428E+00
    0.60814719299761665905E+00
    0.60763712837603267580E+00
    0.60667108494847321598E+00
    0.60674480504390981839E+00
    0.61287222039423305819E+00
    0.61308067306037405952E+00
    0.61229259769002264413E+00
    0.61244245455724877214E+00
    0.61349443755910348930E+00
    0.61389467676221398662E+00
    0.61479392283178846412E+00
    0.61469093932447405049E+00
    0.61518966854114698339E+00
    0.61488628446213966505E+00
    0.61415859454362242698E+00
    0.61355310974107235555E+00
    0.61385938078608959234E+00
    0.61399809523083193064E+00
    0.61056927537090155411E+00
    0.61022249417460250331E+00
    0.60845774428262988653E+00
    0.60840985627442656369E+00
    0.61022317411338844462E+00
    0.61060719128318996507E+00
    0.61222933141938928880E+00
    0.61247200738220997085E+00
    0.61363654396463684915E+00
    0.61356095682926459212E+00
    0.61237631720331153762E+00
    0.61201689281150661870E+00
    0.61140609630251696593E+00
    0.61142023081003282758E+00
    0.60946740956177969384E+00
    0.60962609500670472684E+00
    0.60852996600648667780E+00
    0.60859673381469447939E+00
    0.61000209408707362080E+00
    0.61044662703573948637E+00
    0.61176315616831922206E+00
    0.61168131090472976918E+00
    0.61240258156797389155E+00
    0.61200185474176982403E+00
    0.61104754610184996988E+00
    0.61030942280287692192E+00
    0.61060942070532320258E+00
    0.61075747288626269782E+00
    0.60593723992248127441E+00
    0.60516692075386202543E+00
    0.60252574353340204727E+00
    0.60218094485210238442E+00
    0.60477266019428865818E+00
    0.60511441620838446465E+00
    0.60763712621995813468E+00
    0.60814719129844729828E+00
    0.60994482697846930108E+00
    0.60991690045656810071E+00
    0.60825599814545916466E+00
    0.60793717248572276546E+00
    0.60674480342852066261E+00
    0.60667108321234608503E+00
    0.60486577204553870768E+00
    0.60412823265720105859E+00
    0.60103575382862883814E+00
    0.60103575461755720521E+00
    0.60412823158339690188E+00
    0.60486576967464711352E+00
    0.60750198118460796426E+00
    0.60791189052507621504E+00
    0.60991816863014314265E+00
    0.60991816812311006046E+00
    0.60791189072777784830E+00
    0.60750198180718639751E+00
    0.60614682884048265432E+00
    0.60614682864428115483E+00
    0.59514550497347162850E+00
    0.59436431627901087360E+00
    0.58955288173264508433E+00
    0.59008401552900124898E+00
    0.59510443318295669357E+00
    0.59677410369268923951E+00
    0.60069311714234863153E+00
    0.60095240766677859856E+00
    0.60396289554564663860E+00
    0.60380867433563556457E+00
    0.60049510740693434752E+00
    0.59957460994811706545E+00
    0.59783015804652661629E+00
    0.59800563856304667087E+00
    0.59677410600768676652E+00
    0.59510443373548449486E+00
    0.59008401399130161469E+00
    0.58955288174863018646E+00
    0.59436431475980333605E+00
    0.59514550283427658517E+00
    0.59957460877500301510E+00
    0.60049510720060017555E+00
    0.60380867561639506302E+00
    0.60396289569754180171E+00
    0.60095240793668247559E+00
    0.60069311755844467804E+00
    0.59800563838775222525E+00
    0.59783015747787637828E+00
    0.57964936849763071258E+00
    0.57727469224547889315E+00
    0.56850336047509886228E+00
    0.56850336090368580599E+00
    0.57727469069576542449E+00
    0.57964936521801302405E+00
    0.58690741479182551021E+00
    0.58777079534407439265E+00
    0.59321776001239590048E+00
    0.59321775943262078368E+00
    0.58777079562374201505E+00
    0.58690741572598736919E+00
    0.58283562529869203939E+00
    0.58283562501889052410E+00
    0.60617523205383816443E+00
    0.60587628712292995736E+00
    0.60423242223496820280E+00
    0.60438727032572003850E+00
    0.60577391996788598760E+00
    0.60578476958468030489E+00
    0.60668601707788805122E+00
    0.60742608891835647711E+00
    0.60849441008728222258E+00
    0.60891958888925157289E+00
    0.60797650135971637031E+00
    0.60790206044082395476E+00
    0.60693083970609706945E+00
    0.60683510977919663532E+00
    0.60172606917590198972E+00
    0.60178116460931629916E+00
    0.60009871947829629413E+00
    0.60058988302452287478E+00
    0.60217832259227499492E+00
    0.60246114981953990952E+00
    0.60328830181756221140E+00
    0.60387301932133352622E+00
    0.60489306411254972762E+00
    0.60524705109510368306E+00
    0.60413003993757796728E+00
    0.60376107561904324150E+00
    0.60312584896360244002E+00
    0.60314633401944994784E+00
    0.59793498718261428593E+00
    0.59802297809069937529E+00
    0.59475897882362205316E+00
    0.59571292236798301101E+00
    0.59932461516811907920E+00
    0.60079318027759909260E+00
    0.60328325436363006151E+00
    0.60332336714435941261E+00
    0.60537528605515855684E+00
    0.60518793715265062350E+00
    0.60260969600253222467E+00
    0.60150403896898219092E+00
    0.60083633124865376551E+00
    0.60113166212443913672E+00
    0.59013091623045010881E+00
    0.59109370040815933933E+00
    0.58750742281678147716E+00
    0.58930958867069493934E+00
    0.59374958303159641737E+00
    0.59607993769727518618E+00
    0.59886150173856711465E+00
    0.59838804983845261809E+00
    0.60062173913690286575E+00
    0.60004398836053562949E+00
    0.59667756321268616837E+00
    0.59465812410479335082E+00
    0.59486629655352496471E+00
    0.59550608572335061996E+00
    0.59793382132007555363E+00
    0.59849414721499838432E+00
    0.59700393714299637704E+00
    0.59787705998897000548E+00
    0.59952452615543916359E+00
    0.60012902550218627518E+00
    0.60075369506516351770E+00
    0.60104420860041363195E+00
    0.60184448588171424177E+00
    0.60203397732566887868E+00
    0.60083811715172286139E+00
    0.60008370868219373939E+00
    0.60005111390560061935E+00
    0.60023227593410832803E+00
    0.59555460169836749174E+00
    0.59666288908095288512E+00
    0.59555832516370077467E+00
    0.59677823337062652076E+00
    0.59832737933473978398E+00
    0.59923796085111336041E+00
    0.59957062319754139690E+00
    0.59948527174795185335E+00
    0.59993372298436598022E+00
    0.59989566105420299991E+00
    0.59873920713055117648E+00
    0.59758957454499861406E+00
    0.59830538728932558534E+00
    0.59865862319042029149E+00
    0.58333846306586933927E+00
    0.58545008954724253591E+00
    0.58201668158004615794E+00
    0.58469777137661982369E+00
    0.58960403671942995807E+00
    0.59275869495842270496E+00
    0.59554853338101954030E+00
    0.59442685772448056181E+00
    0.59655942074478929271E+00
    0.59548235331870724707E+00
    0.59151980969891171380E+00
    0.58844483931037061542E+00
    0.58998145351854491825E+00
    0.59101593207322089540E+00
    0.57905550456027676809E+00
    0.58229723453868875716E+00
    0.57944640864787078094E+00
    0.58282727522289068389E+00
    0.58773356557522538068E+00
    0.59149045580763037755E+00
    0.59400278767646219613E+00
    0.59224233901186662532E+00
    0.59400796167081393317E+00
    0.59243585319459590721E+00
    0.58821945621669924353E+00
    0.58420578347843599154E+00
    0.58720224820156230461E+00
    0.58858794871958630690E+00
    0.58124952429641296714E+00
    0.58123740074712637593E+00
    0.57465875677046307501E+00
    0.57651688501452102997E+00
    0.58393943937662184940E+00
    0.58726076272246052756E+00
    0.59249970503516380393E+00
    0.59209569076260404330E+00
    0.59609448459286229483E+00
    0.59542147871187067754E+00
    0.59028621527629854260E+00
    0.58810271679776759957E+00
    0.58683677016925683834E+00
    0.58749788064917607411E+00
    0.56498796408240892220E+00
    0.56693887343803806012E+00
    0.55934382074083377479E+00
    0.56320774965136277679E+00
    0.57282778300913084202E+00
    0.57825338452380969922E+00
    0.58444590718677058572E+00
    0.58283751516466686393E+00
    0.58746416770293707899E+00
    0.58584498758001979368E+00
    0.57867214130230626434E+00
    0.57434138989558702892E+00
    0.57496442008901871290E+00
    0.57643769636445429949E+00
    0.55168701852966384180E+00
    0.55002828048165941510E+00
    0.53657588106630071945E+00
    0.53911292607002558874E+00
    0.55363324280302017577E+00
    0.55960293932585070120E+00
    0.57020623220591082347E+00
    0.56985001497188114694E+00
    0.57781947957192469900E+00
    0.57690482941897291980E+00
    0.56744820837915144196E+00
    0.56440610436445948217E+00
    0.56028898584880859612E+00
    0.56117014875704962495E+00
    0.51543044917826708051E+00
    0.51803185518879546478E+00
    0.50227496117058190173E+00
    0.50928039532451241378E+00
    0.52890610610317723150E+00
    0.53980924067743485395E+00
    0.55290210769393866030E+00
    0.54979236220153204773E+00
    0.55954715289503031972E+00
    0.55651616542602633242E+00
    0.54205300961406543969E+00
    0.53423426641217020006E+00
    0.53397849526526075525E+00
    0.53671232061935048030E+00
    0.55041890464365572644E+00
    0.55504019946016880382E+00
    0.54760014559797931533E+00
    0.55351146078427404529E+00
    0.56444932067510078522E+00
    0.57183995911024909642E+00
    0.57833715733161750183E+00
    0.57526887040379548477E+00
    0.57991627114246846464E+00
    0.57710376667449658772E+00
    0.56827515951570761743E+00
    0.56138862144143841792E+00
    0.56503202500943439102E+00
    0.56743551026585781205E+00
    0.54120541865004856419E+00
    0.54836711494504219999E+00
    0.54209147857348360944E+00
    0.54956584375199701853E+00
    0.56065590378906871027E+00
    0.56938534406311502867E+00
    0.57548107803161907547E+00
    0.57107720677410078736E+00
    0.57514648806004209369E+00
    0.57121654861867821040E+00
    0.56157170941259360042E+00
    0.55247408016615773274E+00
    0.55935091817444770879E+00
    0.56254435397902347038E+00
    0.48365792046799849224E+00
    0.49204268987494437226E+00
    0.47729524611380036436E+00
    0.48836024864752064500E+00
    0.51051753853406500738E+00
    0.52575669871875330141E+00
    0.53965732587351367133E+00
    0.53319639863683798708E+00
    0.54311673744059429936E+00
    0.53728410871594578513E+00
    0.51894089739961679619E+00
    0.50534438231877576442E+00
    0.51200820403159219563E+00
    0.51681778674257417006E+00
    0.46476980051774657854E+00
    0.47805653682288123951E+00
    0.46604630574612526672E+00
    0.48007264273020416878E+00
    0.50231437134693879276E+00
    0.52040546616321448070E+00
    0.53346976630319831170E+00
    0.52405738761415732174E+00
    0.53273946409493178056E+00
    0.52439605266821720519E+00
    0.50436619831624140975E+00
    0.48622527950280647335E+00
    0.49972722277893100173E+00
    0.50618722777585145600E+00
    0.60578476873333719777E+00
    0.60577391622166898433E+00
    0.60438726478714199786E+00
    0.60423241883476541680E+00
    0.60587628222580081072E+00
    0.60617522750575758561E+00
    0.60790205474331437951E+00
    0.60797649640131590232E+00
    0.60891958639936971664E+00
    0.60849440862908321659E+00
    0.60742608674007425584E+00
    0.60668601504269736857E+00
    0.60683510561298059649E+00
    0.60693083488622523447E+00
    0.60079318101568512933E+00
    0.59932461483590138140E+00
    0.59571292056149971472E+00
    0.59475897879277761504E+00
    0.59802297671077553343E+00
    0.59793498569029945866E+00
    0.60150403681550490553E+00
    0.60260969458270141619E+00
    0.60518793641411983142E+00
    0.60537528397195383700E+00
    0.60332336553569276827E+00
    0.60328325235508861724E+00
    0.60113166097343295746E+00
    0.60083632996203462096E+00
    0.60246115139350686629E+00
    0.60217832045626884518E+00
    0.60058987854259360262E+00
    0.60009871692161964596E+00
    0.60178116061304098849E+00
    0.60172606528939220905E+00
    0.60376107034780179816E+00
    0.60413003588270730582E+00
    0.60524704992000011305E+00
    0.60489306457410041418E+00
    0.60387301884404398500E+00
    0.60328830170843672498E+00
    0.60314633125237770983E+00
    0.60312584531764668050E+00
    0.59607993900739220106E+00
    0.59374958320888382435E+00
    0.58930958717535242286E+00
    0.58750742320748705616E+00
    0.59109369960278412837E+00
    0.59013091543457407706E+00
    0.59465812253100580609E+00
    0.59667756244399450249E+00
    0.60004398832156269350E+00
    0.60062173775375926610E+00
    0.59838804891742514158E+00
    0.59886150046294572835E+00
    0.59550608518551595427E+00
    0.59486629588401518376E+00
    0.58726076583135511378E+00
    0.58393944085425064650E+00
    0.57651688488340102623E+00
    0.57465875827830681377E+00
    0.58123740042187177490E+00
    0.58124952365769566587E+00
    0.58810271550208237379E+00
    0.59028621529537828039E+00
    0.59542148016968254876E+00
    0.59609448512587037694E+00
    0.59209569145919305200E+00
    0.59249970593557221843E+00
    0.58749788112696621489E+00
    0.58683677026371316998E+00
    0.55960294557313228214E+00
    0.55363324782531275758E+00
    0.53911293153816253199E+00
    0.53657588694303481880E+00
    0.55002828212140975062E+00
    0.55168701764804861654E+00
    0.56440610401135993257E+00
    0.56744820976789112077E+00
    0.57690483195460007249E+00
    0.57781948112213410429E+00
    0.56985001728929018938E+00
    0.57020623497032429938E+00
    0.56117015141326798133E+00
    0.56028898785692238249E+00
    0.57825338782933199955E+00
    0.57282778511505993979E+00
    0.56320775012365020817E+00
    0.55934382373957303169E+00
    0.56693887492843375586E+00
    0.56498796594558065021E+00
    0.57434139022695496202E+00
    0.57867214258020627238E+00
    0.58584498992796985029E+00
    0.58746416902237230673E+00
    0.58283751663054939041E+00
    0.58444590852674227488E+00
    0.57643769786171461522E+00
    0.57496442145457615780E+00
    0.53980924916020911475E+00
    0.52890611750682170467E+00
    0.50928041198003304313E+00
    0.50227498519458124715E+00
    0.51803187037184883490E+00
    0.51543046419910198974E+00
    0.53423427421784375202E+00
    0.54205301729742294548E+00
    0.55651617150083565466E+00
    0.55954715751167760640E+00
    0.54979236835233202818E+00
    0.55290211252156817867E+00
    0.53671232973706028968E+00
    0.53397850514800837551E+00
    0.60012902743629625846E+00
    0.59952452454073801302E+00
    0.59787705538067781319E+00
    0.59700393456861289287E+00
    0.59849414386003840782E+00
    0.59793381809617229816E+00
    0.60008370448631376259E+00
    0.60083811487500449200E+00
    0.60203397890806453763E+00
    0.60184448935644596634E+00
    0.60104420955526649539E+00
    0.60075369532868716504E+00
    0.60023227428799086347E+00
    0.60005111145229084180E+00
    0.59275869518831347804E+00
    0.58960403593630372754E+00
    0.58469776821063201844E+00
    0.58201668057423427971E+00
    0.58545008814318388879E+00
    0.58333846202621719712E+00
    0.58844483788557333526E+00
    0.59151980907304657631E+00
    0.59548235376720659584E+00
    0.59655941985079286027E+00
    0.59442685679593065817E+00
    0.59554853185340028698E+00
    0.59101593119506401486E+00
    0.58998145258300693783E+00
    0.59923795740599228310E+00
    0.59832737413891445843E+00
    0.59677822524657397896E+00
    0.59555831871176445613E+00
    0.59666288344073437067E+00
    0.59555459687942635671E+00
    0.59758956981888544657E+00
    0.59873920428676608019E+00
    0.59989566280264472464E+00
    0.59993372630848484928E+00
    0.59948527086126646157E+00
    0.59957061953218160344E+00
    0.59865861949084631100E+00
    0.59830538316270576171E+00
    0.59149044878535683711E+00
    0.58773355861117171361E+00
    0.58282726572565346501E+00
    0.57944640079288156631E+00
    0.58229722831655683635E+00
    0.57905549979346981893E+00
    0.58420577976442511492E+00
    0.58821945299775146854E+00
    0.59243585205058402199E+00
    0.59400795883888479754E+00
    0.59224233437983275774E+00
    0.59400278132097128481E+00
    0.58858794339490327907E+00
    0.58720224320480340907E+00
    0.57183995954285204988E+00
    0.56444932005633885463E+00
    0.55351145727418982201E+00
    0.54760014499050690961E+00
    0.55504019898020806600E+00
    0.55041890571951324063E+00
    0.56138862178085191523E+00
    0.56827516027447833036E+00
    0.57710376892618597822E+00
    0.57991627212358065613E+00
    0.57526887071989130096E+00
    0.57833715702298404970E+00
    0.56743551013346560374E+00
    0.56503202494114457277E+00
    0.52575670104203986455E+00
    0.51051754458044473761E+00
    0.48836025767882657034E+00
    0.47729526498154928316E+00
    0.49204270660409904492E+00
    0.48365794880096713015E+00
    0.50534439948755849326E+00
    0.51894090772544887447E+00
    0.53728411595606484497E+00
    0.54311674146661492735E+00
    0.53319640237590992804E+00
    0.53965732668775745484E+00