# vtk DataFile Version 3.0
LAPLACIEN  2D
ASCII
DATASET UNSTRUCTURED_GRID
 POINTS        1857  float
   3.1250000000000000E-002  0.93750000000000000        0.0000000000000000     
   6.2500000000000000E-002  0.93750000000000000        0.0000000000000000     
   6.2500000000000000E-002  0.96875000000000000        0.0000000000000000     
   1.8749999999999999E-002  0.95625000000000004        0.0000000000000000     
   4.0625000000000001E-002  0.95937499999999998        0.0000000000000000     
   4.3749999999999997E-002  0.98124999999999996        0.0000000000000000     
   2.1874999999999999E-002  0.97812500000000002        0.0000000000000000     
   9.3750000000000000E-002  0.93750000000000000        0.0000000000000000     
  0.12500000000000000       0.93750000000000000        0.0000000000000000     
  0.12500000000000000       0.96875000000000000        0.0000000000000000     
   8.1250000000000003E-002  0.95625000000000004        0.0000000000000000     
  0.10312499999999999       0.95937499999999998        0.0000000000000000     
  0.10625000000000000       0.98124999999999996        0.0000000000000000     
   8.4375000000000006E-002  0.97812500000000002        0.0000000000000000     
   3.1250000000000000E-002  0.87500000000000000        0.0000000000000000     
   6.2500000000000000E-002  0.87500000000000000        0.0000000000000000     
   6.2500000000000000E-002  0.90625000000000000        0.0000000000000000     
   1.8749999999999999E-002  0.89375000000000004        0.0000000000000000     
   4.0625000000000001E-002  0.89687499999999998        0.0000000000000000     
   4.3749999999999997E-002  0.91874999999999996        0.0000000000000000     
   2.1874999999999999E-002  0.91562500000000002        0.0000000000000000     
   9.3750000000000000E-002  0.87500000000000000        0.0000000000000000     
  0.12500000000000000       0.87500000000000000        0.0000000000000000     
  0.12500000000000000       0.90625000000000000        0.0000000000000000     
   8.1250000000000003E-002  0.89375000000000004        0.0000000000000000     
  0.10312499999999999       0.89687499999999998        0.0000000000000000     
  0.10625000000000000       0.91874999999999996        0.0000000000000000     
   8.4375000000000006E-002  0.91562500000000002        0.0000000000000000     
  0.15625000000000000       0.93750000000000000        0.0000000000000000     
  0.18750000000000000       0.93750000000000000        0.0000000000000000     
  0.18750000000000000       0.96875000000000000        0.0000000000000000     
  0.14374999999999999       0.95625000000000004        0.0000000000000000     
  0.16562499999999999       0.95937499999999998        0.0000000000000000     
  0.16875000000000001       0.98124999999999996        0.0000000000000000     
  0.14687500000000001       0.97812500000000002        0.0000000000000000     
  0.21875000000000000       0.93750000000000000        0.0000000000000000     
  0.25000000000000000       0.93750000000000000        0.0000000000000000     
  0.25000000000000000       0.96875000000000000        0.0000000000000000     
  0.20624999999999999       0.95625000000000004        0.0000000000000000     
  0.22812499999999999       0.95937499999999998        0.0000000000000000     
  0.23125000000000001       0.98124999999999996        0.0000000000000000     
  0.20937500000000001       0.97812500000000002        0.0000000000000000     
  0.15625000000000000       0.87500000000000000        0.0000000000000000     
  0.18750000000000000       0.87500000000000000        0.0000000000000000     
  0.18750000000000000       0.90625000000000000        0.0000000000000000     
  0.14374999999999999       0.89375000000000004        0.0000000000000000     
  0.16562499999999999       0.89687499999999998        0.0000000000000000     
  0.16875000000000001       0.91874999999999996        0.0000000000000000     
  0.14687500000000001       0.91562500000000002        0.0000000000000000     
  0.21875000000000000       0.87500000000000000        0.0000000000000000     
  0.25000000000000000       0.87500000000000000        0.0000000000000000     
  0.25000000000000000       0.90625000000000000        0.0000000000000000     
  0.20624999999999999       0.89375000000000004        0.0000000000000000     
  0.22812499999999999       0.89687499999999998        0.0000000000000000     
  0.23125000000000001       0.91874999999999996        0.0000000000000000     
  0.20937500000000001       0.91562500000000002        0.0000000000000000     
   3.1250000000000000E-002  0.81250000000000000        0.0000000000000000     
   6.2500000000000000E-002  0.81250000000000000        0.0000000000000000     
   6.2500000000000000E-002  0.84375000000000000        0.0000000000000000     
   1.8749999999999999E-002  0.83125000000000004        0.0000000000000000     
   4.0625000000000001E-002  0.83437499999999998        0.0000000000000000     
   4.3749999999999997E-002  0.85624999999999996        0.0000000000000000     
   2.1874999999999999E-002  0.85312500000000002        0.0000000000000000     
   9.3750000000000000E-002  0.81250000000000000        0.0000000000000000     
  0.12500000000000000       0.81250000000000000        0.0000000000000000     
  0.12500000000000000       0.84375000000000000        0.0000000000000000     
   8.1250000000000003E-002  0.83125000000000004        0.0000000000000000     
  0.10312499999999999       0.83437499999999998        0.0000000000000000     
  0.10625000000000000       0.85624999999999996        0.0000000000000000     
   8.4375000000000006E-002  0.85312500000000002        0.0000000000000000     
   3.1250000000000000E-002  0.75000000000000000        0.0000000000000000     
   6.2500000000000000E-002  0.75000000000000000        0.0000000000000000     
   6.2500000000000000E-002  0.78125000000000000        0.0000000000000000     
   1.8749999999999999E-002  0.76875000000000004        0.0000000000000000     
   4.0625000000000001E-002  0.77187499999999998        0.0000000000000000     
   4.3749999999999997E-002  0.79374999999999996        0.0000000000000000     
   2.1874999999999999E-002  0.79062500000000002        0.0000000000000000     
   9.3750000000000000E-002  0.75000000000000000        0.0000000000000000     
  0.12500000000000000       0.75000000000000000        0.0000000000000000     
  0.12500000000000000       0.78125000000000000        0.0000000000000000     
   8.1250000000000003E-002  0.76875000000000004        0.0000000000000000     
  0.10312499999999999       0.77187499999999998        0.0000000000000000     
  0.10625000000000000       0.79374999999999996        0.0000000000000000     
   8.4375000000000006E-002  0.79062500000000002        0.0000000000000000     
  0.15625000000000000       0.81250000000000000        0.0000000000000000     
  0.18750000000000000       0.81250000000000000        0.0000000000000000     
  0.18750000000000000       0.84375000000000000        0.0000000000000000     
  0.14374999999999999       0.83125000000000004        0.0000000000000000     
  0.16562499999999999       0.83437499999999998        0.0000000000000000     
  0.16875000000000001       0.85624999999999996        0.0000000000000000     
  0.14687500000000001       0.85312500000000002        0.0000000000000000     
  0.21875000000000000       0.81250000000000000        0.0000000000000000     
  0.25000000000000000       0.81250000000000000        0.0000000000000000     
  0.25000000000000000       0.84375000000000000        0.0000000000000000     
  0.20624999999999999       0.83125000000000004        0.0000000000000000     
  0.22812499999999999       0.83437499999999998        0.0000000000000000     
  0.23125000000000001       0.85624999999999996        0.0000000000000000     
  0.20937500000000001       0.85312500000000002        0.0000000000000000     
  0.15625000000000000       0.75000000000000000        0.0000000000000000     
  0.18750000000000000       0.75000000000000000        0.0000000000000000     
  0.18750000000000000       0.78125000000000000        0.0000000000000000     
  0.14374999999999999       0.76875000000000004        0.0000000000000000     
  0.16562499999999999       0.77187499999999998        0.0000000000000000     
  0.16875000000000001       0.79374999999999996        0.0000000000000000     
  0.14687500000000001       0.79062500000000002        0.0000000000000000     
  0.21875000000000000       0.75000000000000000        0.0000000000000000     
  0.25000000000000000       0.75000000000000000        0.0000000000000000     
  0.25000000000000000       0.78125000000000000        0.0000000000000000     
  0.20624999999999999       0.76875000000000004        0.0000000000000000     
  0.22812499999999999       0.77187499999999998        0.0000000000000000     
  0.23125000000000001       0.79374999999999996        0.0000000000000000     
  0.20937500000000001       0.79062500000000002        0.0000000000000000     
  0.28125000000000000       0.93750000000000000        0.0000000000000000     
  0.31250000000000000       0.93750000000000000        0.0000000000000000     
  0.31250000000000000       0.96875000000000000        0.0000000000000000     
  0.26874999999999999       0.95625000000000004        0.0000000000000000     
  0.29062500000000002       0.95937499999999998        0.0000000000000000     
  0.29375000000000001       0.98124999999999996        0.0000000000000000     
  0.27187499999999998       0.97812500000000002        0.0000000000000000     
  0.34375000000000000       0.93750000000000000        0.0000000000000000     
  0.37500000000000000       0.93750000000000000        0.0000000000000000     
  0.37500000000000000       0.96875000000000000        0.0000000000000000     
  0.33124999999999999       0.95625000000000004        0.0000000000000000     
  0.35312500000000002       0.95937499999999998        0.0000000000000000     
  0.35625000000000001       0.98124999999999996        0.0000000000000000     
[...]
 CELL_DATA        3584
 SCALARS Nutrients float
 LOOKUP_TABLE default
    0.61715943022465646894E+00
    0.61719307265580736210E+00
    0.61689286798407572121E+00
    0.61689286791509301278E+00
    0.61719307244744991969E+00
    0.61715943000260742313E+00
    0.61739025623542109766E+00
    0.61752542775115182305E+00
    0.61767334642554938551E+00
    0.61767334772889581629E+00
    0.61752542933305365480E+00
    0.61739025725820706469E+00
    0.61740882672719599178E+00
    0.61740882641528604946E+00
    0.61617319818924853880E+00
    0.61594882538872941513E+00
    0.61528117314903496560E+00
    0.61516528575623474762E+00
    0.61568063946971796074E+00
    0.61552403230397745304E+00
    0.61598863445095952684E+00
    0.61637935823914813405E+00
    0.61682511170962239788E+00
    0.61698784766035574822E+00
    0.61668374047251062198E+00
    0.61670445958484898519E+00
    0.61627246545166602942E+00
    0.61618851815174047193E+00
    0.61552403334928496026E+00
    0.61568064010272827158E+00
    0.61516528530162195576E+00
    0.61528117491726830313E+00
    0.61594882671154993492E+00
    0.61617319903702616468E+00
    0.61670446037995252375E+00
    0.61668374043431184450E+00
    0.61698784665283823436E+00
    0.61682511177138754643E+00
    0.61637935942736521433E+00
    0.61598863604658515847E+00
    0.61618851903418569993E+00
    0.61627246630560883478E+00
    0.61406898949890276196E+00
    0.61388318257627372265E+00
    0.61277925373106789664E+00
    0.61277925448957337728E+00
    0.61388318169459965556E+00
    0.61406898758665207083E+00
    0.61501144972935273270E+00
    0.61523669682275272663E+00
    0.61595567153247232639E+00
    0.61595567268564210828E+00
    0.61523669819057213992E+00
    0.61501145142678836919E+00
    0.61462793019584349707E+00
    0.61462792984950442854E+00
    0.61389511043741618046E+00
    0.61349491241511766582E+00
    0.61244317884514920536E+00
    0.61229327580898151862E+00
    0.61308112365365419194E+00
    0.61287262031642653071E+00
    0.61355342248207522804E+00
    0.61415887012417014201E+00
    0.61488648598526240985E+00
    0.61518984994342862382E+00
    0.61469119364401991756E+00
    0.61479418536280050489E+00
    0.61399844738797959565E+00
    0.61385973262631210456E+00
    0.61044803577043682541E+00
    0.61000349698047773295E+00
    0.60859889180510162721E+00
    0.60853185665454301301E+00
    0.60962726798975364062E+00
    0.60946837086445959653E+00
    0.61031015794526444207E+00
    0.61104821240885653921E+00
    0.61200234346726856138E+00
    0.61240304344196672126E+00
    0.61168200676772699342E+00
    0.61176397263938453452E+00
    0.61075840561874239487E+00
    0.61061031606284066342E+00
    0.61060924430852725475E+00
    0.61022546344643535665E+00
    0.60841362033595869363E+00
    0.60846132496271232437E+00
    0.61022459678204676869E+00
    0.61057093871883916236E+00
    0.61201783764687789358E+00
    0.61237724420243566659E+00
    0.61356149482122468442E+00
    0.61363709879574213080E+00
    0.61247300810481042355E+00
    0.61223046776154488313E+00
    0.61142171193399419415E+00
    0.61140754005112041281E+00
    0.60512229439514597651E+00
    0.60478080782053755815E+00
    0.60219380453202453474E+00
    0.60253739469973521814E+00
    0.60517375699428288538E+00
    0.60594233008382702987E+00
    0.60794008050897663242E+00
    0.60825905238915944917E+00
    0.60991871881770121089E+00
    0.60994681714030674069E+00
    0.60815084434020838522E+00
    0.60764156260737811621E+00
    0.60667623414554705530E+00
    0.60674967907739929540E+00
    0.61287261791010705370E+00
    0.61308111889054739407E+00
    0.61229327069951633433E+00
    0.61244317619983890122E+00
    0.61349490825789954052E+00
    0.61389510799389912510E+00
    0.61479418391475659789E+00
    0.61469119031465802028E+00
    0.61518984870725335057E+00
    0.61488648430829428992E+00
    0.61415886659768581524E+00
    0.61355341962457521365E+00
    0.61385972723962201059E+00
    0.61399844212559373524E+00
    0.61057093893114944283E+00
    0.61022459641003701236E+00
    0.60846132301033983847E+00
    0.60841362026255707551E+00
    0.61022546212707229341E+00
    0.61060924241964231740E+00
    0.61223046670847824924E+00
    0.61247300765605994233E+00
    0.61363709923048226358E+00
    0.61356149414265315212E+00
    0.61237724340924748478E+00
    0.61201783614247018406E+00
    0.61140753941814740546E+00
    0.61142171121551691648E+00
    0.60946836929973979835E+00
    0.60962726375028397641E+00
    0.60853185104376050774E+00
    0.60859888832650499424E+00
    0.61000349176300461274E+00
    0.61044803119672619296E+00
    0.61176396747077088634E+00
    0.61168200133378503036E+00
    0.61240303970892340235E+00
    0.61200234037075984528E+00
    0.61104820912095736407E+00
    0.61031015557120060766E+00
    0.61061031106026575355E+00
    0.61075840009739290615E+00
    0.60594233031987698723E+00
    0.60517375623716240796E+00
    0.60253739245909998523E+00
    0.60219380408063649668E+00
    0.60478080600797889943E+00
    0.60512229256881855388E+00
    0.60764156058773666214E+00
    0.60815084276214237402E+00
    0.60994681623211655097E+00
    0.60991871657039764543E+00
    0.60825905054830864405E+00
    0.60794007832311014461E+00
    0.60674967760641140835E+00
    0.60667623254470803840E+00
    0.60487442376852085246E+00
    0.60413842543813445207E+00
    0.60105242867520503047E+00
    0.60105242946993997499E+00
    0.60413842438636300436E+00
    0.60487442142051950356E+00
    0.60750687528735858312E+00
    0.60791644169915182161E+00
    0.60992074084645153675E+00
    0.60992074038735921704E+00
    0.60791644193921845485E+00
    0.60750687598291086555E+00
    0.60615367631313099572E+00
    0.60615367611599280107E+00
    0.59518067667975349533E+00
    0.59440269430418979368E+00
    0.58961191391576162069E+00
    0.59014053715596659355E+00
    0.59513977134006557090E+00
    0.59680270658239997772E+00
    0.60070994476677230800E+00
    0.60096910918516399658E+00
    0.60397288764048795429E+00
    0.60381915745448755395E+00
    0.60051337445498031986E+00
    0.59959536559184500870E+00
    0.59785602994274533728E+00
    0.59803084179434251588E+00
    0.59680270886229536131E+00
    0.59513977186033051314E+00
    0.59014053558317125514E+00
    0.58961191391159328834E+00
    0.59440269278773039119E+00
    0.59518067455165490909E+00
    0.59959536441545457919E+00
    0.60051337422438622049E+00
    0.60381915870345959085E+00
    0.60397288780523950003E+00
    0.60096910945516746061E+00
    0.60070994521148579626E+00
    0.59803084160315345130E+00
    0.59785602936111148509E+00
    0.57976527474306338572E+00
    0.57740571420869746255E+00
    0.56869452437455214611E+00
    0.56869452484596905162E+00
    0.57740571271418850152E+00
    0.57976527156505586191E+00
    0.58698042161524355276E+00
    0.58783946556977673126E+00
    0.59326046363187057153E+00
    0.59326046305932866876E+00
    0.58783946584170365668E+00
    0.58698042251413096171E+00
    0.58293148139794692675E+00
    0.58293148112766091096E+00
    0.60617910418132714412E+00
    0.60587985163349644679E+00
    0.60423778281846607374E+00
    0.60439172006915176105E+00
    0.60577660729167948084E+00
    0.60578683355248530429E+00
    0.60668759863464949422E+00
    0.60742758252346551462E+00
    0.60849551879461849513E+00
    0.60892067920933234948E+00
    0.60797823166494280311E+00
    0.60790427725018658656E+00
    0.60693308458930317340E+00
    0.60683719449869455431E+00
    0.60173479196822210469E+00
    0.60178864616777294483E+00
    0.60010950161074660958E+00
    0.60059842890025993967E+00
    0.60218347357745760640E+00
    0.60246489962965288356E+00
    0.60329124317880133965E+00
    0.60387593826234831074E+00
    0.60489530408601510647E+00
    0.60524934214318426573E+00
    0.60413375307715810880E+00
    0.60376614276296047823E+00
    0.60313045673759480003E+00
    0.60315049267170373071E+00
    0.59795886795526642654E+00
    0.59804599738207142590E+00
    0.59479350638163652754E+00
    0.59574287686924132235E+00
    0.59934238684917073847E+00
    0.60080574645972928405E+00
    0.60329060312845617098E+00
    0.60333161267748036671E+00
    0.60538040347275312580E+00
    0.60519383726605313623E+00
    0.60262051476322964216E+00
    0.60151792142159954402E+00
    0.60085079308342392856E+00
    0.60114499400556065112E+00
    0.59018755364897401705E+00
    0.59114474892398516381E+00
    0.58757966580415676994E+00
    0.58936975698908011800E+00
    0.59378595523562593961E+00
    0.59610449097396001061E+00
    0.59887639092897226867E+00
    0.59840586649061588975E+00
    0.60063340613925841893E+00
    0.60005806558627416969E+00
    0.59670303546373737458E+00
    0.59469239894058756324E+00
    0.59489844042858985862E+00
    0.59553499631304807060E+00
    0.59794945517810493829E+00
    0.59850667269504120860E+00
    0.59702101328548662362E+00
    0.59789002445568351085E+00
    0.59953243887285800895E+00
    0.60013452667309097333E+00
    0.60075817428287914268E+00
    0.60104890901656804481E+00
    0.60184828181790273050E+00
    0.60203801287916469676E+00
    0.60084464174509577550E+00
    0.60009307574640946559E+00
    0.60005878193984862889E+00
    0.60023901889761510642E+00
    0.59557640097424147108E+00
    0.59667922943121787238E+00
    0.59557921165088856252E+00
    0.59679345453586774006E+00
    0.59833686833911081671E+00
    0.59924429267766143870E+00
    0.59957601885519606899E+00
    0.59949128177549082519E+00
    0.59993888671008022140E+00
    0.59990136868248478130E+00
    0.59874828349222963819E+00
    0.59760319592732835670E+00
    0.59831541965022860818E+00
    0.59866723047535974622E+00
    0.58344246194551419027E+00
    0.58553778503910847153E+00
    0.58213300448432236944E+00
    0.58479085742503633671E+00
    0.58966167610260422638E+00
    0.59279594960645953794E+00
    0.59557216352909736479E+00
    0.59445702524356802687E+00
    0.59658046597882297135E+00
    0.59550885983310952732E+00
    0.59156672702040435929E+00
    0.58851080668631983173E+00
    0.59003706904701880287E+00
    0.59106475989969831097E+00
    0.57920171973193501636E+00
    0.58241267256671558350E+00
    0.57958935199212113787E+00
    0.58293718429197938224E+00
    0.58780345828121594032E+00
    0.59153376898501552894E+00
    0.59403167374686294266E+00
    0.59228170570209437429E+00
    0.59403740511401681434E+00
    0.59247451760763802930E+00
    0.58828604335633516431E+00
    0.58430343580512011936E+00
    0.58727613404112466444E+00
    0.58865127338546430202E+00
    0.58135701662834271541E+00
    0.58134721613721840328E+00
    0.57481650010169260678E+00
    0.57666303830614540349E+00
    0.58403370888190553334E+00
    0.58733416611872502067E+00
    0.59254492689075100031E+00
    0.59214342546118226007E+00
    0.59612494419933492740E+00
    0.59545484680779103837E+00
    0.59034277405776092174E+00
    0.58816984757078061286E+00
    0.58691195919387273428E+00
    0.58756951206677343613E+00
    0.56523751284302359288E+00
    0.56717981051295174311E+00
    0.55966664110073804927E+00
    0.56349807321291278672E+00
    0.57302161441928334273E+00
    0.57839898791446509030E+00
    0.58454031586387877883E+00
    0.58294336992815154463E+00
    0.58753653455411558593E+00
    0.58592742819155807510E+00
    0.57880714496686380688E+00
    0.57450738028516723510E+00
    0.57513278909991172316E+00
    0.57659488246511336751E+00
    0.55200199145718065186E+00
    0.55036190223143999223E+00
    0.53700687437893401821E+00
    0.53954441441829514847E+00
    0.55395468605774089710E+00
    0.55988599608727607215E+00
    0.57039835362136714902E+00
    0.57004026469936863730E+00
    0.57794902326487918032E+00
    0.57703917094981826974E+00
    0.56765075693748467955E+00
    0.56462763977035024254E+00
    0.56054865121556607388E+00
    0.56142612614516540503E+00
    0.51601535583964031062E+00
    0.51865511070271730354E+00
    0.50301230130395491180E+00
    0.51003237868940543009E+00
    0.52950923476195288497E+00
    0.54033985809674245360E+00
    0.55328898082743405151E+00
    0.55019185140259085909E+00
    0.55984405743636289632E+00
    0.55683102935030226455E+00
    0.54249112587869530167E+00
    0.53470773062150678268E+00
    0.53450192727692658057E+00
    0.53722660850835546320E+00
    0.55086434039387111028E+00
    0.55544640961627289588E+00
    0.54810706991862501170E+00
    0.55395319959200028936E+00
    0.56475472682533622848E+00
    0.57206120850214237095E+00
    0.57848863868861233328E+00
    0.57544952099854018712E+00
    0.58004914723197598114E+00
    0.57726104748270989919E+00
    0.56852326869702396461E+00
    0.56170436946359059149E+00
    0.56532165617601959351E+00
    0.56770039593442211956E+00
    0.54181648399590076615E+00
    0.54889333656779337733E+00
    0.54270454314586513700E+00
    0.55008228715167573064E+00
    0.56102437551802886162E+00
    0.56964216055130523220E+00
    0.57566669093155475867E+00
    0.57131297008289194661E+00
    0.57533323237481948098E+00
    0.57144623178527231833E+00
    0.56192092708108909438E+00
    0.55293455711464889468E+00
    0.55973240864982665155E+00
    0.56288591477893601400E+00
    0.48456853607418004515E+00
    0.49299280422302360627E+00
    0.47835227251257761427E+00
    0.48941688883400413790E+00
    0.51140838759790319124E+00
    0.52652730657562063499E+00
    0.54025741168132568326E+00
    0.53384634834375743750E+00
    0.54364096258373739712E+00
    0.53785322192239226613E+00
    0.51968211417872722802E+00
    0.50614495058792186022E+00
    0.51284081531827907519E+00
    0.51762731515603854771E+00
    0.46593856828735935593E+00
    0.47922170136934816309E+00
    0.46727050337046927009E+00
    0.48126454933416767945E+00
    0.50335423231350939766E+00
    0.52128128650558758217E+00
    0.53419063311377124048E+00
    0.52487933920924489950E+00
    0.53345346479597044453E+00
    0.52519304669593913637E+00
    0.50535337581893846615E+00
    0.48731284444566225211E+00
    0.50077216546103142658E+00
    0.50718827585115056067E+00
    0.60578683241184361208E+00
    0.60577660350776563192E+00
    0.60439171467958796580E+00
    0.60423777959917701619E+00
    0.60587984687441442944E+00
    0.60617909982537698799E+00
    0.60790427179317274575E+00
    0.60797822679041046978E+00
    0.60892067671739547041E+00
    0.60849551721593808651E+00
    0.60742758024081888735E+00
    0.60668759650543224726E+00
    0.60683719029777283271E+00
    0.60693307979053956469E+00
    0.60080574730208602396E+00
    0.59934238659524385895E+00
    0.59574287510498946663E+00
    0.59479350637073824526E+00
    0.59804599605335662105E+00
    0.59795886648587537326E+00
    0.60151791934913423354E+00
    0.60262051343332834197E+00
    0.60519383664115800059E+00
    0.60538040155107386564E+00
    0.60333161121526579507E+00
    0.60329060128645883854E+00
    0.60114499295438639237E+00
    0.60085079188469325828E+00
    0.60246490076011927073E+00
    0.60218347124482263233E+00
    0.60059842444676536655E+00
    0.60010949914781630543E+00
    0.60178864221889194486E+00
    0.60173478821727610644E+00
    0.60376613761367159405E+00
    0.60413374885526482938E+00
    0.60524934049571621486E+00
    0.60489530384620626702E+00
    0.60387593733162803211E+00
    0.60329124269321343643E+00
    0.60315048968138496033E+00
    0.60313045294922551509E+00
    0.59610449237044282889E+00
    0.59378595547727275328E+00
    0.58936975553848092169E+00
    0.58757966620320967177E+00
    0.59114474814231898758E+00
    0.59018755283433932401E+00
    0.59469239740267021421E+00
    0.59670303475757324740E+00
    0.60005806564534558412E+00
    0.60063340488691219221E+00
    0.59840586568123288469E+00
    0.59887638976087020914E+00
    0.59553499584885527529E+00
    0.59489843981966117337E+00
    0.58733416913174463225E+00
    0.58403371023135519646E+00
    0.57666303797952322974E+00
    0.57481650140266582483E+00
    0.58134721568220049104E+00
    0.58135701587369070786E+00
    0.58816984621894496943E+00
    0.59034277400839552108E+00
    0.59545484821896355054E+00
    0.59612494471674148944E+00
    0.59214342611426562524E+00
    0.59254492777038636486E+00
    0.58756951245600408384E+00
    0.58691195919658289970E+00
    0.55988600188084813869E+00
    0.55395469057617718889E+00
    0.53954441908779326997E+00
    0.53700687961823811989E+00
    0.55036190353135383546E+00
    0.55200199044326192510E+00
    0.56462763932496706776E+00
    0.56765075814619880834E+00
    0.57703917334716892107E+00
    0.57794902467070796703E+00
    0.57004026677863062211E+00
    0.57039835611967482087E+00
    0.56142612848130879488E+00
    0.56054865293589994923E+00
    0.57839899113567450062E+00
    0.57302161633976278488E+00
    0.56349807336178581174E+00
    0.55966664364695839495E+00
    0.56717981169185915924E+00
    0.56523751433882107875E+00
    0.57450738039123727674E+00
    0.57880714606933236777E+00
    0.58592743043198758368E+00
    0.58753653581173181930E+00
    0.58294337130579176876E+00
    0.58454031717071508467E+00
    0.57659488379656353985E+00
    0.57513279026941954708E+00
    0.54033986528499400315E+00
    0.52950924410837807432E+00
    0.51003239154346990958E+00
    0.50301232111759186516E+00
    0.51865512342553110603E+00
    0.51601536880252685258E+00
    0.53470773732824750102E+00
    0.54249113256731607002E+00
    0.55683103487680563060E+00
    0.55984406156791577391E+00
    0.55019185674396631214E+00
    0.55328898497290701641E+00
    0.53722661622576695084E+00
    0.53450193567306436560E+00
    0.60013452833729086233E+00
    0.59953243713907722334E+00
    0.59789001997614654726E+00
    0.59702101086479331116E+00
    0.59850666937449770177E+00
    0.59794945204557836682E+00
    0.60009307156443436604E+00
    0.60084463921797826025E+00
    0.60203801392499078915E+00
    0.60184828462889461420E+00
    0.60104890957538614771E+00
    0.60075817429672828673E+00
    0.60023901703730231372E+00
    0.60005877931771267608E+00
    0.59279595010033392377E+00
    0.58966167554231074810E+00
    0.58479085453274237683E+00
    0.58213300368162290699E+00
    0.58553778377178944403E+00
    0.58344246095769325411E+00
    0.58851080532096289311E+00
    0.59156672648964636618E+00
    0.59550886037406847162E+00
    0.59658046519982732558E+00
    0.59445702447355175391E+00
    0.59557216218898978433E+00
    0.59106475918266698777E+00
    0.59003706825104340616E+00
    0.59924428984408595333E+00
    0.59833686369614391687E+00
    0.59679344712388537886E+00
    0.59557920588423907127E+00
    0.59667922422897057277E+00
    0.59557639651810589942E+00
    0.59760319137896911190E+00
    0.59874828066484331313E+00
    0.59990137013770838958E+00
    0.59993888971518427589E+00
    0.59949128101676107949E+00
    0.59957601570983520833E+00
    0.59866722705741126642E+00
    0.59831541577104130347E+00
    0.59153376280494984751E+00
    0.58780345211095219593E+00
    0.58293717566630076643E+00
    0.57958934495796721187E+00
    0.58241266697852500656E+00
    0.57920171542797960207E+00
    0.58430343244039661954E+00
    0.58828604055784827764E+00
    0.59247451679335161323E+00
    0.59403740268312898998E+00
    0.59228170166407778652E+00
    0.59403166811453544938E+00
    0.58865126870043682494E+00
    0.58727612963363950982E+00
    0.57206120915113622960E+00
    0.56475472622505140663E+00
    0.55395319594141723130E+00
    0.54810706882423754216E+00
    0.55544640877285456071E+00
    0.55086434081156554488E+00
    0.56170436946161539371E+00
    0.56852326929641761044E+00
    0.57726104966606961444E+00
    0.58004914822700703869E+00
    0.57544952136382654384E+00
    0.57848863855555909819E+00
    0.56770039575787456521E+00
    0.56532165597981631766E+00
    0.52652730746936338146E+00
    0.51140839064803034208E+00
    0.48941689326946263838E+00
    0.47835228467239809813E+00
    0.49299281512552511897E+00
    0.48456855688403155380E+00
    0.50614496329607483460E+00
    0.51968212149602110994E+00
    0.53785322771725607716E+00
    0.54364096559486907445E+00
    0.53384635051974571596E+00
    0.54025741161012852398E+00