# vtk DataFile Version 3.0
LAPLACIEN  2D
ASCII
DATASET UNSTRUCTURED_GRID
 POINTS        1857  float
   3.1250000000000000E-002  0.93750000000000000        0.0000000000000000     
   6.2500000000000000E-002  0.93750000000000000        0.0000000000000000     
   6.2500000000000000E-002  0.96875000000000000        0.0000000000000000     
   1.8749999999999999E-002  0.95625000000000004        0.0000000000000000     
   4.0625000000000001E-002  0.95937499999999998        0.0000000000000000     
   4.3749999999999997E-002  0.98124999999999996        0.0000000000000000     
   2.1874999999999999E-002  0.97812500000000002        0.0000000000000000     
   9.3750000000000000E-002  0.93750000000000000        0.0000000000000000     
  0.12500000000000000       0.93750000000000000        0.0000000000000000     
  0.12500000000000000       0.96875000000000000        0.0000000000000000     
   8.1250000000000003E-002  0.95625000000000004        0.0000000000000000     
  0.10312499999999999       0.95937499999999998        0.0000000000000000     
  0.10625000000000000       0.98124999999999996        0.0000000000000000     
   8.4375000000000006E-002  0.97812500000000002        0.0000000000000000     
   3.1250000000000000E-002  0.87500000000000000        0.0000000000000000     
   6.2500000000000000E-002  0.87500000000000000        0.0000000000000000     
   6.2500000000000000E-002  0.90625000000000000        0.0000000000000000     
   1.8749999999999999E-002  0.89375000000000004        0.0000000000000000     
   4.0625000000000001E-002  0.89687499999999998        0.0000000000000000     
   4.3749999999999997E-002  0.91874999999999996        0.0000000000000000     
   2.1874999999999999E-002  0.91562500000000002        0.0000000000000000     
   9.3750000000000000E-002  0.87500000000000000        0.0000000000000000     
  0.12500000000000000       0.87500000000000000        0.0000000000000000     
  0.12500000000000000       0.90625000000000000        0.0000000000000000     
   8.1250000000000003E-002  0.89375000000000004        0.0000000000000000     
  0.10312499999999999       0.89687499999999998        0.0000000000000000     
  0.10625000000000000       0.91874999999999996        0.0000000000000000     
   8.4375000000000006E-002  0.91562500000000002        0.0000000000000000     
  0.15625000000000000       0.93750000000000000        0.0000000000000000     
  0.18750000000000000       0.93750000000000000        0.0000000000000000     
  0.18750000000000000       0.96875000000000000        0.0000000000000000     
  0.14374999999999999       0.95625000000000004        0.0000000000000000     
  0.16562499999999999       0.95937499999999998        0.0000000000000000     
  0.16875000000000001       0.98124999999999996        0.0000000000000000     
  0.14687500000000001       0.97812500000000002        0.0000000000000000     
  0.21875000000000000       0.93750000000000000        0.0000000000000000     
  0.25000000000000000       0.93750000000000000        0.0000000000000000     
  0.25000000000000000       0.96875000000000000        0.0000000000000000     
  0.20624999999999999       0.95625000000000004        0.0000000000000000     
  0.22812499999999999       0.95937499999999998        0.0000000000000000     
  0.23125000000000001       0.98124999999999996        0.0000000000000000     
  0.20937500000000001       0.97812500000000002        0.0000000000000000     
  0.15625000000000000       0.87500000000000000        0.0000000000000000     
  0.18750000000000000       0.87500000000000000        0.0000000000000000     
  0.18750000000000000       0.90625000000000000        0.0000000000000000     
  0.14374999999999999       0.89375000000000004        0.0000000000000000     
  0.16562499999999999       0.89687499999999998        0.0000000000000000     
  0.16875000000000001       0.91874999999999996        0.0000000000000000     
  0.14687500000000001       0.91562500000000002        0.0000000000000000     
  0.21875000000000000       0.87500000000000000        0.0000000000000000     
  0.25000000000000000       0.87500000000000000        0.0000000000000000     
  0.25000000000000000       0.90625000000000000        0.0000000000000000     
  0.20624999999999999       0.89375000000000004        0.0000000000000000     
  0.22812499999999999       0.89687499999999998        0.0000000000000000     
  0.23125000000000001       0.91874999999999996        0.0000000000000000     
  0.20937500000000001       0.91562500000000002        0.0000000000000000     
   3.1250000000000000E-002  0.81250000000000000        0.0000000000000000     
   6.2500000000000000E-002  0.81250000000000000        0.0000000000000000     
   6.2500000000000000E-002  0.84375000000000000        0.0000000000000000     
   1.8749999999999999E-002  0.83125000000000004        0.0000000000000000     
   4.0625000000000001E-002  0.83437499999999998        0.0000000000000000     
   4.3749999999999997E-002  0.85624999999999996        0.0000000000000000     
   2.1874999999999999E-002  0.85312500000000002        0.0000000000000000     
   9.3750000000000000E-002  0.81250000000000000        0.0000000000000000     
  0.12500000000000000       0.81250000000000000        0.0000000000000000     
  0.12500000000000000       0.84375000000000000        0.0000000000000000     
   8.1250000000000003E-002  0.83125000000000004        0.0000000000000000     
  0.10312499999999999       0.83437499999999998        0.0000000000000000     
  0.10625000000000000       0.85624999999999996        0.0000000000000000     
   8.4375000000000006E-002  0.85312500000000002        0.0000000000000000     
   3.1250000000000000E-002  0.75000000000000000        0.0000000000000000     
   6.2500000000000000E-002  0.75000000000000000        0.0000000000000000     
   6.2500000000000000E-002  0.78125000000000000        0.0000000000000000     
   1.8749999999999999E-002  0.76875000000000004        0.0000000000000000     
   4.0625000000000001E-002  0.77187499999999998        0.0000000000000000     
   4.3749999999999997E-002  0.79374999999999996        0.0000000000000000     
   2.1874999999999999E-002  0.79062500000000002        0.0000000000000000     
   9.3750000000000000E-002  0.75000000000000000        0.0000000000000000     
  0.12500000000000000       0.75000000000000000        0.0000000000000000     
  0.12500000000000000       0.78125000000000000        0.0000000000000000     
   8.1250000000000003E-002  0.76875000000000004        0.0000000000000000     
  0.10312499999999999       0.77187499999999998        0.0000000000000000     
  0.10625000000000000       0.79374999999999996        0.0000000000000000     
   8.4375000000000006E-002  0.79062500000000002        0.0000000000000000     
  0.15625000000000000       0.81250000000000000        0.0000000000000000     
  0.18750000000000000       0.81250000000000000        0.0000000000000000     
  0.18750000000000000       0.84375000000000000        0.0000000000000000     
  0.14374999999999999       0.83125000000000004        0.0000000000000000     
  0.16562499999999999       0.83437499999999998        0.0000000000000000     
  0.16875000000000001       0.85624999999999996        0.0000000000000000     
  0.14687500000000001       0.85312500000000002        0.0000000000000000     
  0.21875000000000000       0.81250000000000000        0.0000000000000000     
  0.25000000000000000       0.81250000000000000        0.0000000000000000     
  0.25000000000000000       0.84375000000000000        0.0000000000000000     
  0.20624999999999999       0.83125000000000004        0.0000000000000000     
  0.22812499999999999       0.83437499999999998        0.0000000000000000     
  0.23125000000000001       0.85624999999999996        0.0000000000000000     
  0.20937500000000001       0.85312500000000002        0.0000000000000000     
  0.15625000000000000       0.75000000000000000        0.0000000000000000     
  0.18750000000000000       0.75000000000000000        0.0000000000000000     
  0.18750000000000000       0.78125000000000000        0.0000000000000000     
  0.14374999999999999       0.76875000000000004        0.0000000000000000     
  0.16562499999999999       0.77187499999999998        0.0000000000000000     
  0.16875000000000001       0.79374999999999996        0.0000000000000000     
  0.14687500000000001       0.79062500000000002        0.0000000000000000     
  0.21875000000000000       0.75000000000000000        0.0000000000000000     
  0.25000000000000000       0.75000000000000000        0.0000000000000000     
  0.25000000000000000       0.78125000000000000        0.0000000000000000     
  0.20624999999999999       0.76875000000000004        0.0000000000000000     
  0.22812499999999999       0.77187499999999998        0.0000000000000000     
  0.23125000000000001       0.79374999999999996        0.0000000000000000     
  0.20937500000000001       0.79062500000000002        0.0000000000000000     
  0.28125000000000000       0.93750000000000000        0.0000000000000000     
  0.31250000000000000       0.93750000000000000        0.0000000000000000     
  0.31250000000000000       0.96875000000000000        0.0000000000000000     
  0.26874999999999999       0.95625000000000004        0.0000000000000000     
  0.29062500000000002       0.95937499999999998        0.0000000000000000     
  0.29375000000000001       0.98124999999999996        0.0000000000000000     
  0.27187499999999998       0.97812500000000002        0.0000000000000000     
  0.34375000000000000       0.93750000000000000        0.0000000000000000     
  0.37500000000000000       0.93750000000000000        0.0000000000000000     
  0.37500000000000000       0.96875000000000000        0.0000000000000000     
  0.33124999999999999       0.95625000000000004        0.0000000000000000     
  0.35312500000000002       0.95937499999999998        0.0000000000000000     
  0.35625000000000001       0.98124999999999996        0.0000000000000000     
[...]
 CELL_DATA        3584
 SCALARS Nutrients float
 LOOKUP_TABLE default
    0.61715885091050581845E+00
    0.61719251902148231093E+00
    0.61689230855152221711E+00
    0.61689230877699730016E+00
    0.61719251829042254265E+00
    0.61715884872340387446E+00
    0.61738960912937301817E+00
    0.61752479253634751100E+00
    0.61767260710839666515E+00
    0.61767260828592884803E+00
    0.61752479405536464530E+00
    0.61738961090603416970E+00
    0.61740839906289612937E+00
    0.61740839872004926736E+00
    0.61617305533662625194E+00
    0.61594901311824212797E+00
    0.61528173596417168323E+00
    0.61516600222234940620E+00
    0.61568117382515064051E+00
    0.61552470146977256160E+00
    0.61598901490603064079E+00
    0.61637947468796816519E+00
    0.61682482774625913002E+00
    0.61698738088623750198E+00
    0.61668349978295688985E+00
    0.61670401135416341720E+00
    0.61627272269151123218E+00
    0.61618887925443199816E+00
    0.61552470312646667683E+00
    0.61568117429251989492E+00
    0.61516600171460000812E+00
    0.61528173656835571936E+00
    0.61594901310931393645E+00
    0.61617305497946217585E+00
    0.61670401148516551526E+00
    0.61668349996997784412E+00
    0.61698738182664947249E+00
    0.61682482929396131865E+00
    0.61637947595912079279E+00
    0.61598901619203405566E+00
    0.61618887968438085245E+00
    0.61627272293455748198E+00
    0.61407064767014052364E+00
    0.61388519399423080447E+00
    0.61278266832920780249E+00
    0.61278266890100296926E+00
    0.61388519355517345844E+00
    0.61407064639985975418E+00
    0.61501221419220930553E+00
    0.61523735386165812056E+00
    0.61595565943570840250E+00
    0.61595565988710809791E+00
    0.61523735410314017713E+00
    0.61501221455051124920E+00
    0.61462933235090899675E+00
    0.61462933228194505109E+00
    0.61389696217916145393E+00
    0.61349728892867849694E+00
    0.61244660938621442448E+00
    0.61229670273578762352E+00
    0.61308383466996907440E+00
    0.61287533086024226225E+00
    0.61355570221449384771E+00
    0.61416076075338443818E+00
    0.61488774495925280217E+00
    0.61519079476738181000E+00
    0.61469254196617562069E+00
    0.61479523183844209111E+00
    0.61400058660008050015E+00
    0.61386200252066425165E+00
    0.61045429875464884972E+00
    0.61000988713799020324E+00
    0.60860794676707063999E+00
    0.60853978814674281050E+00
    0.60963284499134051675E+00
    0.60947310185881919953E+00
    0.61031429959759075921E+00
    0.61105219136716248940E+00
    0.61200562699452809579E+00
    0.61240608621269654321E+00
    0.61168589044668797428E+00
    0.61176800941266484823E+00
    0.61076334624003036922E+00
    0.61061515680384881311E+00
    0.61061758591663228835E+00
    0.61023495951849937580E+00
    0.60842943722457398792E+00
    0.60847630597012880571E+00
    0.61023344937663492882E+00
    0.61057802130190341749E+00
    0.61202206015838100939E+00
    0.61238125733385162519E+00
    0.61356372550587379155E+00
    0.61363926372468580173E+00
    0.61247708234684128392E+00
    0.61223494110778742261E+00
    0.61142800861020440983E+00
    0.61141373888238481626E+00
    0.60515666950569080296E+00
    0.60481608216599902494E+00
    0.60225079116407442825E+00
    0.60258770476364642565E+00
    0.60520246361906759880E+00
    0.60596298500190637348E+00
    0.60795207495974790124E+00
    0.60827186286391798919E+00
    0.60992653510035621522E+00
    0.60995526269222755111E+00
    0.60816623781415779515E+00
    0.60766032294688077098E+00
    0.60669811637488479938E+00
    0.60677025261873895889E+00
    0.61287533208390954087E+00
    0.61308383419753798016E+00
    0.61229670183736795153E+00
    0.61244660960450225673E+00
    0.61349728799133551593E+00
    0.61389696151737427332E+00
    0.61479523130061308756E+00
    0.61469254100146974995E+00
    0.61519079503257012576E+00
    0.61488774578981730823E+00
    0.61416076093736915453E+00
    0.61355570290269356715E+00
    0.61386200112705024967E+00
    0.61400058500768650571E+00
    0.61057802250728743232E+00
    0.61023344980665483739E+00
    0.60847630538740760109E+00
    0.60842943781141645143E+00
    0.61023495917830516966E+00
    0.61061758484124561974E+00
    0.61223494068003325719E+00
    0.61247708235983766567E+00
    0.61363926404293211991E+00
    0.61356372607770992555E+00
    0.61238125756357830731E+00
    0.61202206030081374166E+00
    0.61141373902099949156E+00
    0.61142800866333824050E+00
    0.60947310308361157816E+00
    0.60963284450435850648E+00
    0.60853978724852220150E+00
    0.60860794697818587640E+00
    0.61000988615622842026E+00
    0.61045429802318151857E+00
    0.61176800863662950114E+00
    0.61168588932529288638E+00
    0.61240608622990388987E+00
    0.61200562768833188798E+00
    0.61105219149159994974E+00
    0.61031430026906652309E+00
    0.61061515535925947606E+00
    0.61076334457917713650E+00
    0.60596298622614985785E+00
    0.60520246405873112661E+00
    0.60258770419690088627E+00
    0.60225079176411988602E+00
    0.60481608182425417031E+00
    0.60515666842173632123E+00
    0.60766032250385015878E+00
    0.60816623781112999492E+00
    0.60995526297213309430E+00
    0.60992653563730103716E+00
    0.60827186308526692837E+00
    0.60795207510148085994E+00
    0.60677025275335572108E+00
    0.60669811642120774486E+00
    0.60491290011384823977E+00
    0.60418476684327171444E+00
    0.60113146934540662158E+00
    0.60113146993721988665E+00
    0.60418476648325369904E+00
    0.60491289904039746705E+00
    0.60752782531108673325E+00
    0.60793593835633308320E+00
    0.60993133264810228678E+00
    0.60993133265302756918E+00
    0.60793593846522375745E+00
    0.60752782575914543450E+00
    0.60618396603348412288E+00
    0.60618396599421009441E+00
    0.59536187387030103935E+00
    0.59460145397722719007E+00
    0.58993272966795740064E+00
    0.59044203086246049850E+00
    0.59531780231139375115E+00
    0.59694031816962056514E+00
    0.60078704607997390763E+00
    0.60104696617109787393E+00
    0.60401747721250942380E+00
    0.60386647317179542593E+00
    0.60060061460445002268E+00
    0.59969629975711546965E+00
    0.59798354475376713779E+00
    0.59815401079185881450E+00
    0.59694031927243518254E+00
    0.59531780270052858661E+00
    0.59044203029367281488E+00
    0.58993273026416692684E+00
    0.59460145360374649925E+00
    0.59536187278749741481E+00
    0.59969629929988332862E+00
    0.60060061449036894476E+00
    0.60386647315890606968E+00
    0.60401747721107079681E+00
    0.60104696628396891978E+00
    0.60078704654326187118E+00
    0.59815401083936059479E+00
    0.59798354471477932481E+00
    0.58046673265179726808E+00
    0.57822582992484317099E+00
    0.56997753897797920342E+00
    0.56997753962663055827E+00
    0.57822582947168177370E+00
    0.58046673150137662045E+00
    0.58739277461345007492E+00
    0.58822720752720203397E+00
    0.59348630948097680360E+00
    0.59348630948462932633E+00
    0.58822720761713986892E+00
    0.58739277504312992217E+00
    0.58350099764853036177E+00
    0.58350099759820228673E+00
    0.60619419677059416252E+00
    0.60589331521224898403E+00
    0.60425751207433919809E+00
    0.60440743589384915424E+00
    0.60578620593929566329E+00
    0.60579383375776785225E+00
    0.60669337627256736400E+00
    0.60743354098448432143E+00
    0.60850050387463083812E+00
    0.60892573087224555195E+00
    0.60798541201068279083E+00
    0.60791330332021487060E+00
    0.60694189447151092320E+00
    0.60684527620726269603E+00
    0.60176616824638506920E+00
    0.60181432265157697170E+00
    0.60014715107717531151E+00
    0.60062676371122569741E+00
    0.60219968286277236746E+00
    0.60247580630208663610E+00
    0.60329972733608150381E+00
    0.60388485307440054051E+00
    0.60490233393305326004E+00
    0.60525682564796445817E+00
    0.60414609404361718781E+00
    0.60378381044631679320E+00
    0.60314561586326942422E+00
    0.60316381157894505272E+00
    0.59806782114098355763E+00
    0.59814788417108555318E+00
    0.59495089495914021960E+00
    0.59587393270549882107E+00
    0.59941625134715015299E+00
    0.60085474931337767845E+00
    0.60331842751751374454E+00
    0.60336423623272639194E+00
    0.60540052445120906555E+00
    0.60521762489768271553E+00
    0.60266578702712259030E+00
    0.60157832767081254044E+00
    0.60091169669741606452E+00
    0.60120005882162963484E+00
    0.59045226886885571194E+00
    0.59137365943629993659E+00
    0.58791522857392009005E+00
    0.58963596578215782262E+00
    0.59393692935161079838E+00
    0.59619915607506246413E+00
    0.59893090205893262379E+00
    0.59847444674207117554E+00
    0.60067690232535997374E+00
    0.60011281724270915117E+00
    0.59680898438139506901E+00
    0.59484327086501909143E+00
    0.59503337196153727184E+00
    0.59565336110283095827E+00
    0.59800462686272237711E+00
    0.59854896062208806651E+00
    0.59708051887420532378E+00
    0.59793303801286878940E+00
    0.59955714939559445753E+00
    0.60015063973251081553E+00
    0.60077088947707502076E+00
    0.60106256661109713768E+00
    0.60185898891460998250E+00
    0.60204969441154132515E+00
    0.60086502395420515743E+00
    0.60012416824389236414E+00
    0.60008311161043115245E+00
    0.60025988968216148489E+00
    0.59565381340652623354E+00
    0.59673486221092719717E+00
    0.59565254314560678317E+00
    0.59684439176584835884E+00
    0.59836692813179903627E+00
    0.59926325337226360457E+00
    0.59959182095859853145E+00
    0.59950920146846264913E+00
    0.59995384631056891678E+00
    0.59991816807319486848E+00
    0.59877694924185997927E+00
    0.59764857179798547282E+00
    0.59834763698504711549E+00
    0.59869428135072988439E+00
    0.58393928247362969497E+00
    0.58593767500607807364E+00
    0.58268494445133622861E+00
    0.58520946021981379292E+00
    0.58990325149244093872E+00
    0.59294054396767337245E+00
    0.59565872323799751165E+00
    0.59457306918716135158E+00
    0.59665802269101320121E+00
    0.59561112164345220155E+00
    0.59176286794828314441E+00
    0.58880457079021253364E+00
    0.59027244376998910802E+00
    0.59126586640297718045E+00
    0.57991479755376762473E+00
    0.58294705186851480949E+00
    0.58027721904760531935E+00
    0.58343631248313454485E+00
    0.58809865421768969806E+00
    0.59170287275774458013E+00
    0.59413817213071273837E+00
    0.59243423354404800563E+00
    0.59414661036920457526E+00
    0.59262475317642282491E+00
    0.58856766285883321821E+00
    0.58474490503750164994E+00
    0.58759231415691814959E+00
    0.58891450465603978337E+00
    0.58198398428402187132E+00
    0.58197583263905383610E+00
    0.57576553758603454813E+00
    0.57751010576480465986E+00
    0.58454278273071047511E+00
    0.58770480239663824840E+00
    0.59276051462687906479E+00
    0.59237919100206437584E+00
    0.59626875186094530079E+00
    0.59561698134003526750E+00
    0.59063806907009142044E+00
    0.58853536635953040967E+00
    0.58731438389712065096E+00
    0.58794597575941531797E+00
    0.56683098258134556602E+00
    0.56866197697002229816E+00
    0.56176185717203841463E+00
    0.56528938799971129026E+00
    0.57412176638552780972E+00
    0.57916101717723300624E+00
    0.58500253454457584734E+00
    0.58348594069917203431E+00
    0.58788953685746547784E+00
    0.58634634642709082542E+00
    0.57955514988587053526E+00
    0.57548475545392541175E+00
    0.57608627928722311307E+00
    0.57746296856315393331E+00
    0.55440953583752206058E+00
    0.55292941414453000704E+00
    0.54060261060053194093E+00
    0.54304885758418652841E+00
    0.55632250764207424876E+00
    0.56183314885352397816E+00
    0.57161632730567113470E+00
    0.57127642416555035609E+00
    0.57873455013192620644E+00
    0.57787014333470831939E+00
    0.56902010482839759931E+00
    0.56617051221995162713E+00
    0.56239136461550642831E+00
    0.56321942065062613469E+00
    0.52151718863701657103E+00
    0.52436770451423264650E+00
    0.51036261299776664035E+00
    0.51715579192060179281E+00
    0.53456531836755150078E+00
    0.54437777208824933428E+00
    0.55596637445812524536E+00
    0.55308402587418858953E+00
    0.56183962163430722914E+00
    0.55903282429202416637E+00
    0.54593016402960259370E+00
    0.53867197540070688166E+00
    0.53879558569294649928E+00
    0.54133865264452107890E+00
    0.55392404910124948270E+00
    0.55810067500312143807E+00
    0.55161304796480103985E+00
    0.55682671796286498100E+00
    0.56656484630614878384E+00
    0.57325776440397768763E+00
    0.57925010993211489829E+00
    0.57640680395230192712E+00
    0.58071553736907699506E+00
    0.57808867612114567258E+00
    0.56996561922908073328E+00
    0.56367938718466681358E+00
    0.56704264846166185787E+00
    0.56922782717414488474E+00
    0.54625099674987576126E+00
    0.55247608854350593877E+00
    0.54709908050982747341E+00
    0.55353052587813544871E+00
    0.56326025900771736765E+00
    0.57105336468779666070E+00
    0.57661497774116432513E+00
    0.57259247889428410705E+00
    0.57629292556918754187E+00
    0.57269264230546856886E+00
    0.56403097444578087494E+00
    0.55595901380002343828E+00
    0.56207829605024184350E+00
    0.56491446779790499555E+00
    0.49462905566230314092E+00
    0.50293533035253046304E+00
    0.49032385454932309043E+00
    0.50061555539060831332E+00
    0.51966029548075942657E+00
    0.53287697177546700100E+00
    0.54471965800860600027E+00
    0.53898169055224254276E+00
    0.54746874684899293761E+00
    0.54223991132419402383E+00
    0.52623460259680310269E+00
    0.51390732579646947187E+00
    0.52049670115140922455E+00
    0.52481617643638722726E+00
    0.48018932444953349448E+00
    0.49241043923149158124E+00
    0.48204527181942752323E+00
    0.49455451864386901217E+00
    0.51349080080826625672E+00
    0.52875817759597298906E+00
    0.53976634963588510097E+00
    0.53174762631778160760E+00
    0.53899790684082682368E+00
    0.53181002402014976305E+00
    0.51484468422341600480E+00
    0.49900272281167584731E+00
    0.51110540486917033220E+00
    0.51667238375871582523E+00
    0.60579383500729666601E+00
    0.60578620547783101902E+00
    0.60440743502486204974E+00
    0.60425751231198909785E+00
    0.60589331425216008675E+00
    0.60619419606320779081E+00
    0.60791330255369380176E+00
    0.60798541090413449339E+00
    0.60892573090070267749E+00
    0.60850050458390092523E+00
    0.60743354112780834075E+00
    0.60669337696629510592E+00
    0.60684527478323380123E+00
    0.60694189283001187540E+00
    0.60085475056106818492E+00
    0.59941625181901936337E+00
    0.59587393218221651470E+00
    0.59495089560226821490E+00
    0.59814788386216277694E+00
    0.59806782008861569810E+00
    0.60157832724958459902E+00
    0.60266578705089801637E+00
    0.60521762520283761688E+00
    0.60540052501469387991E+00
    0.60336423648193526770E+00
    0.60331842768562538026E+00
    0.60120005898517514531E+00
    0.60091169677248601477E+00
    0.60247580757989094291E+00
    0.60219968243029231569E+00
    0.60062676287165128741E+00
    0.60014715134384521988E+00
    0.60181432171804027931E+00
    0.60176616756122669472E+00
    0.60378380970772571601E+00
    0.60414609296502874702E+00
    0.60525682570201122523E+00
    0.60490233466785725547E+00
    0.60388485324354423955E+00
    0.60329972805671749914E+00
    0.60316381018233833355E+00
    0.60314561424925705602E+00
    0.59619915733526640533E+00
    0.59393692984110946220E+00
    0.58963596525019890127E+00
    0.58791522920867578250E+00
    0.59137365913740091994E+00
    0.59045226783074944432E+00
    0.59484327048533303106E+00
    0.59680898443501517736E+00
    0.60011281757228429612E+00
    0.60067690291215125598E+00
    0.59847444701618246476E+00
    0.59893090225439327146E+00
    0.59565336129317592029E+00
    0.59503337206254292013E+00
    0.58770480355985188492E+00
    0.58454278320161767724E+00
    0.57751010517750878126E+00
    0.57576553827094634208E+00
    0.58197583226488613928E+00
    0.58198398311035115515E+00
    0.58853536595031374912E+00
    0.59063806901588300491E+00
    0.59561698136546925575E+00
    0.59626875189664108046E+00
    0.59237919116383486173E+00
    0.59276051512428162837E+00
    0.58794597586407004730E+00
    0.58731438390590950949E+00
    0.56183315035798631065E+00
    0.55632250820178252848E+00
    0.54304885674101266435E+00
    0.54060261108542551067E+00
    0.55292941347675239605E+00
    0.55440953447471841287E+00
    0.56617051162552922694E+00
    0.56902010467566765950E+00
    0.57787014343599729660E+00
    0.57873455007580965059E+00
    0.57127642429114700029E+00
    0.57161632795392658402E+00
    0.56321942070507791112E+00
    0.56239136448920612477E+00
    0.57916101837494038396E+00
    0.57412176688429783500E+00
    0.56528938730910127664E+00
    0.56176185778587561792E+00
    0.56866197655306960357E+00
    0.56683098154628486220E+00
    0.57548475505213436687E+00
    0.57955514988729539549E+00
    0.58634634652357831008E+00
    0.58788953690760648030E+00
    0.58348594083207183658E+00
    0.58500253501286703095E+00
    0.57746296867056090552E+00
    0.57608627929602940210E+00
    0.54437777385030838850E+00
    0.53456531906295423617E+00
    0.51715579109757059406E+00
    0.51036261353420964149E+00
    0.52436770400595500430E+00
    0.52151718768786448077E+00
    0.53867197474564088022E+00
    0.54593016396063887008E+00
    0.55903282480548188715E+00
    0.56183962186852320908E+00
    0.55308402614161278343E+00
    0.55596637516973657078E+00
    0.54133865278750747940E+00
    0.53879558563912910429E+00
    0.60015064104445203785E+00
    0.59955714899697676312E+00
    0.59793303720834856119E+00
    0.59708051917455340352E+00
    0.59854895971798627308E+00
    0.59800462619173344603E+00
    0.60012416753366337741E+00
    0.60086502290610888100E+00
    0.60204969449443612728E+00
    0.60185898967846740426E+00
    0.60106256681031944300E+00
    0.60077089022969165644E+00
    0.60025988831696619474E+00
    0.60008311002746561602E+00
    0.59294054526641448710E+00
    0.58990325202815518946E+00
    0.58520945972353799469E+00
    0.58268494515337909689E+00
    0.58593767473300906179E+00
    0.58393928136825723474E+00
    0.58880457041463341028E+00
    0.59176286801540189941E+00
    0.59561112198369836612E+00
    0.59665802328885209072E+00
    0.59457306948494437204E+00
    0.59565872346688075734E+00
    0.59126586662700131303E+00
    0.59027244390036925914E+00
    0.59926325472924935056E+00
    0.59836692777770827956E+00
    0.59684439100931729882E+00
    0.59565254349320262417E+00
    0.59673486134859976548E+00
    0.59565381277557316597E+00
    0.59764857112441016618E+00
    0.59877694823150573455E+00
    0.59991816819156562612E+00
    0.59995384711096289010E+00
    0.59950920170690691346E+00
    0.59959182175320024921E+00
    0.59869428002634605956E+00
    0.59834763544226821086E+00
    0.59170287411437794134E+00
    0.58809865479276601796E+00
    0.58343631200758094835E+00
    0.58027721977434598699E+00
    0.58294705162963533773E+00
    0.57991479651133515105E+00
    0.58474490473309059801E+00
    0.58856766298724527697E+00
    0.59262475355805188659E+00
    0.59414661100915178160E+00
    0.59243423389536065127E+00
    0.59413817240997734981E+00
    0.58891450493750108208E+00
    0.58759231434270076111E+00
    0.57325776570062880744E+00
    0.56656484684364460946E+00
    0.55682671725101939852E+00
    0.55161304858680071384E+00
    0.55810067462066303978E+00
    0.55392404819801555060E+00
    0.56367938668925887669E+00
    0.56996561915861221337E+00
    0.57808867631101734652E+00
    0.58071553741608961108E+00
    0.57640680409269984263E+00
    0.57925011049323926748E+00
    0.56922782728226928306E+00
    0.56704264844874374685E+00
    0.53287697363915542681E+00
    0.51966029624443754731E+00
    0.50061555453855743902E+00
    0.49032385509206660723E+00
    0.50293532992106959600E+00
    0.49462905485810015893E+00
    0.51390732517942427915E+00
    0.52623460266615240677E+00
    0.54223991213307043413E+00
    0.54746874731568873074E+00
    0.53898169096015380308E+00
    0.54471965878021488816E+00