# vtk DataFile Version 3.0
LAPLACIEN  2D
ASCII
DATASET UNSTRUCTURED_GRID
 POINTS        1857  float
   3.1250000000000000E-002  0.93750000000000000        0.0000000000000000     
   6.2500000000000000E-002  0.93750000000000000        0.0000000000000000     
   6.2500000000000000E-002  0.96875000000000000        0.0000000000000000     
   1.8749999999999999E-002  0.95625000000000004        0.0000000000000000     
   4.0625000000000001E-002  0.95937499999999998        0.0000000000000000     
   4.3749999999999997E-002  0.98124999999999996        0.0000000000000000     
   2.1874999999999999E-002  0.97812500000000002        0.0000000000000000     
   9.3750000000000000E-002  0.93750000000000000        0.0000000000000000     
  0.12500000000000000       0.93750000000000000        0.0000000000000000     
  0.12500000000000000       0.96875000000000000        0.0000000000000000     
   8.1250000000000003E-002  0.95625000000000004        0.0000000000000000     
  0.10312499999999999       0.95937499999999998        0.0000000000000000     
  0.10625000000000000       0.98124999999999996        0.0000000000000000     
   8.4375000000000006E-002  0.97812500000000002        0.0000000000000000     
   3.1250000000000000E-002  0.87500000000000000        0.0000000000000000     
   6.2500000000000000E-002  0.87500000000000000        0.0000000000000000     
   6.2500000000000000E-002  0.90625000000000000        0.0000000000000000     
   1.8749999999999999E-002  0.89375000000000004        0.0000000000000000     
   4.0625000000000001E-002  0.89687499999999998        0.0000000000000000     
   4.3749999999999997E-002  0.91874999999999996        0.0000000000000000     
   2.1874999999999999E-002  0.91562500000000002        0.0000000000000000     
   9.3750000000000000E-002  0.87500000000000000        0.0000000000000000     
  0.12500000000000000       0.87500000000000000        0.0000000000000000     
  0.12500000000000000       0.90625000000000000        0.0000000000000000     
   8.1250000000000003E-002  0.89375000000000004        0.0000000000000000     
  0.10312499999999999       0.89687499999999998        0.0000000000000000     
  0.10625000000000000       0.91874999999999996        0.0000000000000000     
   8.4375000000000006E-002  0.91562500000000002        0.0000000000000000     
  0.15625000000000000       0.93750000000000000        0.0000000000000000     
  0.18750000000000000       0.93750000000000000        0.0000000000000000     
  0.18750000000000000       0.96875000000000000        0.0000000000000000     
  0.14374999999999999       0.95625000000000004        0.0000000000000000     
  0.16562499999999999       0.95937499999999998        0.0000000000000000     
  0.16875000000000001       0.98124999999999996        0.0000000000000000     
  0.14687500000000001       0.97812500000000002        0.0000000000000000     
  0.21875000000000000       0.93750000000000000        0.0000000000000000     
  0.25000000000000000       0.93750000000000000        0.0000000000000000     
  0.25000000000000000       0.96875000000000000        0.0000000000000000     
  0.20624999999999999       0.95625000000000004        0.0000000000000000     
  0.22812499999999999       0.95937499999999998        0.0000000000000000     
  0.23125000000000001       0.98124999999999996        0.0000000000000000     
  0.20937500000000001       0.97812500000000002        0.0000000000000000     
  0.15625000000000000       0.87500000000000000        0.0000000000000000     
  0.18750000000000000       0.87500000000000000        0.0000000000000000     
  0.18750000000000000       0.90625000000000000        0.0000000000000000     
  0.14374999999999999       0.89375000000000004        0.0000000000000000     
  0.16562499999999999       0.89687499999999998        0.0000000000000000     
  0.16875000000000001       0.91874999999999996        0.0000000000000000     
  0.14687500000000001       0.91562500000000002        0.0000000000000000     
  0.21875000000000000       0.87500000000000000        0.0000000000000000     
  0.25000000000000000       0.87500000000000000        0.0000000000000000     
  0.25000000000000000       0.90625000000000000        0.0000000000000000     
  0.20624999999999999       0.89375000000000004        0.0000000000000000     
  0.22812499999999999       0.89687499999999998        0.0000000000000000     
  0.23125000000000001       0.91874999999999996        0.0000000000000000     
  0.20937500000000001       0.91562500000000002        0.0000000000000000     
   3.1250000000000000E-002  0.81250000000000000        0.0000000000000000     
   6.2500000000000000E-002  0.81250000000000000        0.0000000000000000     
   6.2500000000000000E-002  0.84375000000000000        0.0000000000000000     
   1.8749999999999999E-002  0.83125000000000004        0.0000000000000000     
   4.0625000000000001E-002  0.83437499999999998        0.0000000000000000     
   4.3749999999999997E-002  0.85624999999999996        0.0000000000000000     
   2.1874999999999999E-002  0.85312500000000002        0.0000000000000000     
   9.3750000000000000E-002  0.81250000000000000        0.0000000000000000     
  0.12500000000000000       0.81250000000000000        0.0000000000000000     
  0.12500000000000000       0.84375000000000000        0.0000000000000000     
   8.1250000000000003E-002  0.83125000000000004        0.0000000000000000     
  0.10312499999999999       0.83437499999999998        0.0000000000000000     
  0.10625000000000000       0.85624999999999996        0.0000000000000000     
   8.4375000000000006E-002  0.85312500000000002        0.0000000000000000     
   3.1250000000000000E-002  0.75000000000000000        0.0000000000000000     
   6.2500000000000000E-002  0.75000000000000000        0.0000000000000000     
   6.2500000000000000E-002  0.78125000000000000        0.0000000000000000     
   1.8749999999999999E-002  0.76875000000000004        0.0000000000000000     
   4.0625000000000001E-002  0.77187499999999998        0.0000000000000000     
   4.3749999999999997E-002  0.79374999999999996        0.0000000000000000     
   2.1874999999999999E-002  0.79062500000000002        0.0000000000000000     
   9.3750000000000000E-002  0.75000000000000000        0.0000000000000000     
  0.12500000000000000       0.75000000000000000        0.0000000000000000     
  0.12500000000000000       0.78125000000000000        0.0000000000000000     
   8.1250000000000003E-002  0.76875000000000004        0.0000000000000000     
  0.10312499999999999       0.77187499999999998        0.0000000000000000     
  0.10625000000000000       0.79374999999999996        0.0000000000000000     
   8.4375000000000006E-002  0.79062500000000002        0.0000000000000000     
  0.15625000000000000       0.81250000000000000        0.0000000000000000     
  0.18750000000000000       0.81250000000000000        0.0000000000000000     
  0.18750000000000000       0.84375000000000000        0.0000000000000000     
  0.14374999999999999       0.83125000000000004        0.0000000000000000     
  0.16562499999999999       0.83437499999999998        0.0000000000000000     
  0.16875000000000001       0.85624999999999996        0.0000000000000000     
  0.14687500000000001       0.85312500000000002        0.0000000000000000     
  0.21875000000000000       0.81250000000000000        0.0000000000000000     
  0.25000000000000000       0.81250000000000000        0.0000000000000000     
  0.25000000000000000       0.84375000000000000        0.0000000000000000     
  0.20624999999999999       0.83125000000000004        0.0000000000000000     
  0.22812499999999999       0.83437499999999998        0.0000000000000000     
  0.23125000000000001       0.85624999999999996        0.0000000000000000     
  0.20937500000000001       0.85312500000000002        0.0000000000000000     
  0.15625000000000000       0.75000000000000000        0.0000000000000000     
  0.18750000000000000       0.75000000000000000        0.0000000000000000     
  0.18750000000000000       0.78125000000000000        0.0000000000000000     
  0.14374999999999999       0.76875000000000004        0.0000000000000000     
  0.16562499999999999       0.77187499999999998        0.0000000000000000     
  0.16875000000000001       0.79374999999999996        0.0000000000000000     
  0.14687500000000001       0.79062500000000002        0.0000000000000000     
  0.21875000000000000       0.75000000000000000        0.0000000000000000     
  0.25000000000000000       0.75000000000000000        0.0000000000000000     
  0.25000000000000000       0.78125000000000000        0.0000000000000000     
  0.20624999999999999       0.76875000000000004        0.0000000000000000     
  0.22812499999999999       0.77187499999999998        0.0000000000000000     
  0.23125000000000001       0.79374999999999996        0.0000000000000000     
  0.20937500000000001       0.79062500000000002        0.0000000000000000     
  0.28125000000000000       0.93750000000000000        0.0000000000000000     
  0.31250000000000000       0.93750000000000000        0.0000000000000000     
  0.31250000000000000       0.96875000000000000        0.0000000000000000     
  0.26874999999999999       0.95625000000000004        0.0000000000000000     
  0.29062500000000002       0.95937499999999998        0.0000000000000000     
  0.29375000000000001       0.98124999999999996        0.0000000000000000     
  0.27187499999999998       0.97812500000000002        0.0000000000000000     
  0.34375000000000000       0.93750000000000000        0.0000000000000000     
  0.37500000000000000       0.93750000000000000        0.0000000000000000     
  0.37500000000000000       0.96875000000000000        0.0000000000000000     
  0.33124999999999999       0.95625000000000004        0.0000000000000000     
  0.35312500000000002       0.95937499999999998        0.0000000000000000     
  0.35625000000000001       0.98124999999999996        0.0000000000000000     
[...]
 CELL_DATA        3584
 SCALARS Nutrients float
 LOOKUP_TABLE default
    0.61715922791518074142E+00
    0.61719289622302930809E+00
    0.61689267904841538215E+00
    0.61689267896364918808E+00
    0.61719289500229201906E+00
    0.61715922490464358852E+00
    0.61739000659100018442E+00
    0.61752519550700046835E+00
    0.61767303463883327375E+00
    0.61767303599694778349E+00
    0.61752519753773527089E+00
    0.61739000930790066679E+00
    0.61740876346595519042E+00
    0.61740876296440627691E+00
    0.61617334138172097369E+00
    0.61594923204284124374E+00
    0.61528188906306990891E+00
    0.61516610862802700854E+00
    0.61568130038890145350E+00
    0.61552477504120028939E+00
    0.61598915985410407359E+00
    0.61637969170938278207E+00
    0.61682513477347367115E+00
    0.61698772949139013555E+00
    0.61668380273883061093E+00
    0.61670435727777594970E+00
    0.61627292601484617851E+00
    0.61618905622481956463E+00
    0.61552477703965913225E+00
    0.61568130132418497080E+00
    0.61516610849281827544E+00
    0.61528189012072775910E+00
    0.61594923263818157633E+00
    0.61617334168812554207E+00
    0.61670435798953426865E+00
    0.61668380365232600138E+00
    0.61698773128800399324E+00
    0.61682513728777466078E+00
    0.61637969379219392785E+00
    0.61598916183356600129E+00
    0.61618905728135009436E+00
    0.61627292688168489043E+00
    0.61407070353419201947E+00
    0.61388524038802283478E+00
    0.61278266400100611655E+00
    0.61278266461310770818E+00
    0.61388523981529341533E+00
    0.61407070180750256139E+00
    0.61501235443917512402E+00
    0.61523751916625413205E+00
    0.61595592525028408648E+00
    0.61595592609085869640E+00
    0.61523751977626639498E+00
    0.61501235523512842729E+00
    0.61462940895641826611E+00
    0.61462940881041849828E+00
    0.61389692826408026605E+00
    0.61349713209320633212E+00
    0.61244637457499695454E+00
    0.61229639923773904187E+00
    0.61308352702946389279E+00
    0.61287495233311073406E+00
    0.61355538877346027515E+00
    0.61416055362653709793E+00
    0.61488767253780030053E+00
    0.61519080268645187637E+00
    0.61469249356115873706E+00
    0.61479527971910530315E+00
    0.61400039372697601259E+00
    0.61386176359835664673E+00
    0.61045392046770008410E+00
    0.61000943286367015350E+00
    0.60860751071208130103E+00
    0.60853934672715803700E+00
    0.60963234452101300320E+00
    0.60947261065113245149E+00
    0.61031376762174593953E+00
    0.61105166160032464706E+00
    0.61200513998608763178E+00
    0.61240565524040435630E+00
    0.61168544447643180551E+00
    0.61176765817169442840E+00
    0.61076282515948343566E+00
    0.61061461629583291266E+00
    0.61061747669508026348E+00
    0.61023479013410975025E+00
    0.60842920463893346295E+00
    0.60847604808854982572E+00
    0.61023321045679090879E+00
    0.61057774839083556184E+00
    0.61202183634603535278E+00
    0.61238110548847746184E+00
    0.61356368868853061738E+00
    0.61363927089189540531E+00
    0.61247701217655248218E+00
    0.61223490383331380382E+00
    0.61142782988237009967E+00
    0.61141353771464101996E+00
    0.60515619523136132685E+00
    0.60481555110900209193E+00
    0.60225000128777850250E+00
    0.60258703680555636417E+00
    0.60520196978496376694E+00
    0.60596256127574243955E+00
    0.60795164963974390737E+00
    0.60827144643355468556E+00
    0.60992617235129908959E+00
    0.60995494774249536807E+00
    0.60816588101617830020E+00
    0.60766001032702909868E+00
    0.60669765632145977730E+00
    0.60676978774372558600E+00
    0.61287495305421302305E+00
    0.61308352584548708730E+00
    0.61229639805603552905E+00
    0.61244637469586515888E+00
    0.61349713085953949676E+00
    0.61389692818039787170E+00
    0.61479527946557321894E+00
    0.61469249221714861164E+00
    0.61519080300536754802E+00
    0.61488767323143767030E+00
    0.61416055320785212235E+00
    0.61355538904568707181E+00
    0.61386176118751067943E+00
    0.61400039119510119168E+00
    0.61057774979865031550E+00
    0.61023321110843009585E+00
    0.60847604761865925482E+00
    0.60842920538034084288E+00
    0.61023478994326896263E+00
    0.61061747557726353541E+00
    0.61223490333778474159E+00
    0.61247701242818719525E+00
    0.61363927177141008862E+00
    0.61356369000680399672E+00
    0.61238110622695085539E+00
    0.61202183660577014201E+00
    0.61141353819228183575E+00
    0.61142783021784774533E+00
    0.60947261131269181433E+00
    0.60963234323485415711E+00
    0.60853934549531418785E+00
    0.60860751075376207098E+00
    0.61000943139842100926E+00
    0.61045391993660980123E+00
    0.61176765716610970181E+00
    0.61168544256347523458E+00
    0.61240565470943819637E+00
    0.61200514012166762345E+00
    0.61105166090129459100E+00
    0.61031376776436896403E+00
    0.61061461365845648430E+00
    0.61076282234244960723E+00
    0.60596256266778569799E+00
    0.60520197043020562688E+00
    0.60258703633673404987E+00
    0.60225000202859446663E+00
    0.60481555096423156304E+00
    0.60515619426116185053E+00
    0.60766000998398339572E+00
    0.60816588119955006242E+00
    0.60995494817677797794E+00
    0.60992617317495345652E+00
    0.60827144700737123539E+00
    0.60795164983253202617E+00
    0.60676978818589644149E+00
    0.60669765664302077735E+00
    0.60491241137253193294E+00
    0.60418414341722825878E+00
    0.60113025166257660903E+00
    0.60113025232768757533E+00
    0.60418414307524204165E+00
    0.60491241026409614534E+00
    0.60752755039504480195E+00
    0.60793568515359264204E+00
    0.60993119790433392158E+00
    0.60993119790341632225E+00
    0.60793568534167707895E+00
    0.60752755097945709828E+00
    0.60618355695644443593E+00
    0.60618355690654257550E+00
    0.59535776514461713482E+00
    0.59459681780240491999E+00
    0.58992377915550231471E+00
    0.59043424058906046614E+00
    0.59531405368342626971E+00
    0.59693791336190016317E+00
    0.60078589428094508751E+00
    0.60104574220499273896E+00
    0.60401686987329494816E+00
    0.60386583477750821469E+00
    0.60059916767161991569E+00
    0.59969452450719451519E+00
    0.59798109041204539071E+00
    0.59815171207015216392E+00
    0.59693791453113231871E+00
    0.59531405407581583500E+00
    0.59043423973675557281E+00
    0.58992377977013998880E+00
    0.59459681734633718087E+00
    0.59535776391631733961E+00
    0.59969452397067168903E+00
    0.60059916753063791184E+00
    0.60386583478568289785E+00
    0.60401686996231129800E+00
    0.60104574240505892480E+00
    0.60078589483302557994E+00
    0.59815171213407147821E+00
    0.59798109035888391549E+00
    0.58043959273668532806E+00
    0.57819080750789630940E+00
    0.56991371414243419125E+00
    0.56991371491384312797E+00
    0.57819080685639312467E+00
    0.58043959109039477973E+00
    0.58737963542017979091E+00
    0.58821478256086634495E+00
    0.59348060048826789536E+00
    0.59348060038943328820E+00
    0.58821478279059891126E+00
    0.58737963615415311747E+00
    0.58347969436954227884E+00
    0.58347969425754941941E+00
    0.60619382958256196048E+00
    0.60589300251651723173E+00
    0.60425730258721876975E+00
    0.60440729952613791998E+00
    0.60578599963021351194E+00
    0.60579370467746807005E+00
    0.60669314349331326941E+00
    0.60743319660112060632E+00
    0.60850006924674082676E+00
    0.60892526844712857592E+00
    0.60798498942916123777E+00
    0.60791288455445680050E+00
    0.60694152146000612813E+00
    0.60684493031771702398E+00
    0.60176611119811829198E+00
    0.60181436083976369567E+00
    0.60014722851409751936E+00
    0.60062691302680848437E+00
    0.60219982253053261356E+00
    0.60247598953795222787E+00
    0.60329987356987491154E+00
    0.60388492130350679421E+00
    0.60490232302133295494E+00
    0.60525676192887400973E+00
    0.60414606385812141820E+00
    0.60378372959443804557E+00
    0.60314563793929720781E+00
    0.60316386256886456163E+00
    0.59806627742060802788E+00
    0.59814662485142988668E+00
    0.59494882940186677445E+00
    0.59587255566530472617E+00
    0.59941557303910308896E+00
    0.60085443655123316198E+00
    0.60331817855292502184E+00
    0.60336384615180072011E+00
    0.60540014723621149439E+00
    0.60521720299902259654E+00
    0.60266520141287727164E+00
    0.60157754031694243846E+00
    0.60091098394965469787E+00
    0.60119945438633581869E+00
    0.59044883666887559848E+00
    0.59137134539530544775E+00
    0.58791153916427152382E+00
    0.58963373822297659999E+00
    0.59393601599085110720E+00
    0.59619889279966153950E+00
    0.59893087697221958354E+00
    0.59847420369595294432E+00
    0.60067677071070968431E+00
    0.60011252476197174399E+00
    0.59680818316161599046E+00
    0.59484171000864682899E+00
    0.59503236258561786887E+00
    0.59565262503819726980E+00
    0.59800467711034699381E+00
    0.59854902760956218977E+00
    0.59708049573181143366E+00
    0.59793303873129954873E+00
    0.59955719177023314437E+00
    0.60015065121156374595E+00
    0.60077095622978982092E+00
    0.60106268371224469416E+00
    0.60185916624005886266E+00
    0.60204988499850575767E+00
    0.60086518250765741378E+00
    0.60012432038842244975E+00
    0.60008319956321765076E+00
    0.60025996648648904941E+00
    0.59565361884889966859E+00
    0.59673466094846983054E+00
    0.59565227207160897915E+00
    0.59684416327939271429E+00
    0.59836670433693528448E+00
    0.59926302246642981775E+00
    0.59959159481555990290E+00
    0.59950901938639844513E+00
    0.59995374881579421888E+00
    0.59991812932676891190E+00
    0.59877685942905012340E+00
    0.59764852648680633074E+00
    0.59834744109330983974E+00
    0.59869406682584669355E+00
    0.58393408807700331042E+00
    0.58593441213268759871E+00
    0.58268003200649376438E+00
    0.58520654028592966611E+00
    0.58990198088034817570E+00
    0.59294004926065291272E+00
    0.59565857329817106791E+00
    0.59457272976180441937E+00
    0.59665794703757601969E+00
    0.59561084224624449845E+00
    0.59176174698399752749E+00
    0.58880217090599451524E+00
    0.59027103890594956326E+00
    0.59126484540022605785E+00
    0.57990854294849025763E+00
    0.58294321682814909114E+00
    0.58027171940890265311E+00
    0.58343307264728028194E+00
    0.58809712713448880628E+00
    0.59170218668592999833E+00
    0.59413778209217049664E+00
    0.59243363232164414356E+00
    0.59414628354202358995E+00
    0.59262421790908936803E+00
    0.58856616728609822964E+00
    0.58474186507503111976E+00
    0.58759055190863329621E+00
    0.58891318347894194840E+00
    0.58196274029225592006E+00
    0.58195643193925916670E+00
    0.57573310533022703517E+00
    0.57748503594985634013E+00
    0.58453029884588514342E+00
    0.58769781619888217250E+00
    0.59275712074849684630E+00
    0.59237476551002721248E+00
    0.59626644378814597225E+00
    0.59561404125338790472E+00
    0.59063110230351389962E+00
    0.58852526979784947070E+00
    0.58730425964298371699E+00
    0.58793719890479567702E+00
    0.56677573554926663491E+00
    0.56861883440416416402E+00
    0.56169777039573887123E+00
    0.56524364019021999805E+00
    0.57409835410778842224E+00
    0.57914890945760311158E+00
    0.58499630587783257862E+00
    0.58347666841101653024E+00
    0.58788411283914809857E+00
    0.58633854663441276056E+00
    0.57953727575314850640E+00
    0.57545579999649032477E+00
    0.57606370552468511015E+00
    0.57744443916716614584E+00
    0.55425965347912753423E+00
    0.55277219482931461148E+00
    0.54035785025152571759E+00
    0.54283007796270621448E+00
    0.55619565215273270020E+00
    0.56174603627198593792E+00
    0.57156886592031441729E+00
    0.57122285427760910448E+00
    0.57870486211190441672E+00
    0.57783644444849591171E+00
    0.56895257670157206586E+00
    0.56608831558883065949E+00
    0.56229386187039853695E+00
    0.56312838932970732397E+00
    0.52110894058660506278E+00
    0.52399442538008644821E+00
    0.50984441516405554218E+00
    0.51672150858072884994E+00
    0.53430790574585518282E+00
    0.54421555706965751842E+00
    0.55587191648473388561E+00
    0.55296255692461770970E+00
    0.56176177124721338174E+00
    0.55893475736993736280E+00
    0.54574487998203824457E+00
    0.53842004280391075888E+00
    0.53856261976092822952E+00
    0.54113209296601416654E+00
    0.55383444693810668369E+00
    0.55803650124609771588E+00
    0.55152248893799216134E+00
    0.55676537848527696273E+00
    0.56653343410135637015E+00
    0.57324226014106716143E+00
    0.57924184010968182701E+00
    0.57639367041535571889E+00
    0.58070723290689607587E+00
    0.57807596368167069034E+00
    0.56993719203108017535E+00
    0.56363010582608497057E+00
    0.56700945642738698194E+00
    0.56920146362528412087E+00
    0.54613539254461784811E+00
    0.55239814199866088540E+00
    0.54699269766492597533E+00
    0.55346148131166450490E+00
    0.56322490121670554242E+00
    0.57103648443147037028E+00
    0.57660575892940924003E+00
    0.57257726582703571960E+00
    0.57628292880135689735E+00
    0.57267684779889804769E+00
    0.56399569579289177135E+00
    0.55589503679882334986E+00
    0.56203866675243607798E+00
    0.56488369428366236313E+00
    0.49388880716305444407E+00
    0.50230800787272000818E+00
    0.48948773839388437512E+00
    0.49994844309802999316E+00
    0.51926875659673965568E+00
    0.53264600536259221197E+00
    0.54458348954885982263E+00
    0.53879260824994623658E+00
    0.54734035425316285295E+00
    0.54206708333183228898E+00
    0.52591011794387254596E+00
    0.51343348231965890704E+00
    0.52011355452969165736E+00
    0.52448737811220080829E+00
    0.47910701571183267333E+00
    0.49155684434980928543E+00
    0.48097189349146396431E+00
    0.49374194358341755295E+00
    0.51300922097652346121E+00
    0.52848993130105270666E+00
    0.53960415252210391923E+00
    0.53150665477741154685E+00
    0.53882893519832986140E+00
    0.53157093706878000283E+00
    0.51438851358270898384E+00
    0.49829756508726663622E+00
    0.51059201166570866715E+00
    0.51624479503008247061E+00
    0.60579370535877297144E+00
    0.60578599836026003622E+00
    0.60440729830643302734E+00
    0.60425730263754162674E+00
    0.60589300105641719085E+00
    0.60619382904689733671E+00
    0.60791288352344596824E+00
    0.60798498750649154765E+00
    0.60892526788995582354E+00
    0.60850006937455336509E+00
    0.60743319590925182183E+00
    0.60669314365216298057E+00
    0.60684492769017472913E+00
    0.60694151864886813907E+00
    0.60085443794825066366E+00
    0.59941557368668119121E+00
    0.59587255514944870161E+00
    0.59494883025608857885E+00
    0.59814662471745072558E+00
    0.59806627633011899547E+00
    0.60157753999005747492E+00
    0.60266520161522729726E+00
    0.60521720343004947740E+00
    0.60540014805843900270E+00
    0.60336384673569742887E+00
    0.60331817874995219420E+00
    0.60119945484953163373E+00
    0.60091098429664546732E+00
    0.60247599024085518593E+00
    0.60219982128040905334E+00
    0.60062691181159744147E+00
    0.60014722854734126045E+00
    0.60181435936856841895E+00
    0.60176611064561669195E+00
    0.60378372856945716762E+00
    0.60414606195105868824E+00
    0.60525676139246731289E+00
    0.60490232317145653518E+00
    0.60388492063291265843E+00
    0.60329987375185667453E+00
    0.60316385995906707240E+00
    0.60314563514046326542E+00
    0.59619889429732986219E+00
    0.59393601670388962432E+00
    0.58963373760832671344E+00
    0.58791153991955225067E+00
    0.59137134516678002694E+00
    0.59044883569050821137E+00
    0.59484170967698535293E+00
    0.59680818341477248623E+00
    0.60011252528401637374E+00
    0.60067677158993515452E+00
    0.59847420424641573078E+00
    0.59893087712894110819E+00
    0.59565262548010278199E+00
    0.59503236290260685948E+00
    0.58769781769743778543E+00
    0.58453029927973920721E+00
    0.57748503490311031694E+00
    0.57573310577013370182E+00
    0.58195643127265095362E+00
    0.58196273908234541494E+00
    0.58852526905567648097E+00
    0.59063110201780544273E+00
    0.59561404135469842025E+00
    0.59626644379720017408E+00
    0.59237476570690450473E+00
    0.59275712152855375425E+00
    0.58793719889836715264E+00
    0.58730425943944197797E+00
    0.56174603822679669562E+00
    0.55619565273982463083E+00
    0.54283007681366413077E+00
    0.54035785059119190166E+00
    0.55277219384021425430E+00
    0.55425965181278646909E+00
    0.56608831468107401186E+00
    0.56895257642163232781E+00
    0.57783644504379805262E+00
    0.57870486233280293842E+00
    0.57122285455162191692E+00
    0.57156886664493178341E+00
    0.56312838930078557009E+00
    0.56229386154167659839E+00
    0.57914891121017630926E+00
    0.57409835465095748752E+00
    0.56524363913630271128E+00
    0.56169777087662375870E+00
    0.56861883384652878171E+00
    0.56677573457565433301E+00
    0.57545579912311228821E+00
    0.57953727550165401450E+00
    0.58633854711814070715E+00
    0.58788411311222110722E+00
    0.58347666873693504463E+00
    0.58499630671013935768E+00
    0.57744443921985411095E+00
    0.57606370535606121752E+00
    0.54421555927129161567E+00
    0.53430790653867621387E+00
    0.51672150751206213926E+00
    0.50984441561733784276E+00
    0.52399442484387925845E+00
    0.52110893973630845188E+00
    0.53842004187256242709E+00
    0.54574487994031362081E+00
    0.55893475838340778150E+00
    0.56176177184063968983E+00
    0.55296255747099654076E+00
    0.55587191733756380341E+00
    0.54113209320124533441E+00
    0.53856261972734387200E+00
    0.60015065193498728924E+00
    0.59955719050710121198E+00
    0.59793303748697346212E+00
    0.59708049576842447959E+00
    0.59854902613851723725E+00
    0.59800467645150834350E+00
    0.60012431936016696898E+00
    0.60086518059790705593E+00
    0.60204988447984775224E+00
    0.60185916640989611803E+00
    0.60106268304543908343E+00
    0.60077095643378453094E+00
    0.60025996385520996590E+00
    0.60008319677481547494E+00
    0.59294005067439103929E+00
    0.58990198155334561125E+00
    0.58520653961818080990E+00
    0.58268003275095325844E+00
    0.58593441193723572180E+00
    0.58393408724092810136E+00
    0.58880217048899441412E+00
    0.59176174721550622859E+00
    0.59561084295340782635E+00
    0.59665794792541160252E+00
    0.59457273029432800016E+00
    0.59565857344384143257E+00
    0.59126484581159566289E+00
    0.59027103918886547618E+00
    0.59926302323284441620E+00
    0.59836670314029360984E+00
    0.59684416207727719605E+00
    0.59565227219256289271E+00
    0.59673465954658033716E+00
    0.59565361804655403422E+00
    0.59764852543078317293E+00
    0.59877685757656295973E+00
    0.59991812883734041417E+00
    0.59995374901664244582E+00
    0.59950901877615303537E+00
    0.59959159505820802671E+00
    0.59869406432972960275E+00
    0.59834743843590176837E+00
    0.59170218806979169024E+00
    0.58809712783987910800E+00
    0.58343307202934835409E+00
    0.58027171996729987047E+00
    0.58294321657450487439E+00
    0.57990854212715226002E+00
    0.58474186459579780006E+00
    0.58856616742735645698E+00
    0.59262421855790181624E+00
    0.59414628429767935014E+00
    0.59243363280393823711E+00
    0.59413778230912539513E+00
    0.58891318385595503582E+00
    0.58759055213363553527E+00
    0.57324226199394823222E+00
    0.56653343470577477436E+00
    0.55676537739398468396E+00
    0.55152248941990866804E+00
    0.55803650074756327992E+00
    0.55383444609537924030E+00
    0.56363010496218390877E+00
    0.56993719189795555291E+00
    0.57807596445898135062E+00
    0.58070723341673113893E+00
    0.57639367087893089714E+00
    0.57924184099104780721E+00
    0.56920146376339608718E+00
    0.56700945633678423441E+00
    0.53264600748995383217E+00
    0.51926875729187227382E+00
    0.49994844151612172212E+00
    0.48948773786026439359E+00
    0.50230800714239542959E+00
    0.49388880622049252667E+00
    0.51343348143615397117E+00
    0.52591011803824105897E+00
    0.54206708459905528219E+00
    0.54734035504586697751E+00
    0.53879260890457381095E+00
    0.54458349041529063861E+00