# vtk DataFile Version 3.0
LAPLACIEN  2D
ASCII
DATASET UNSTRUCTURED_GRID
 POINTS        1857  float
   3.1250000000000000E-002  0.93750000000000000        0.0000000000000000     
   6.2500000000000000E-002  0.93750000000000000        0.0000000000000000     
   6.2500000000000000E-002  0.96875000000000000        0.0000000000000000     
   1.8749999999999999E-002  0.95625000000000004        0.0000000000000000     
   4.0625000000000001E-002  0.95937499999999998        0.0000000000000000     
   4.3749999999999997E-002  0.98124999999999996        0.0000000000000000     
   2.1874999999999999E-002  0.97812500000000002        0.0000000000000000     
   9.3750000000000000E-002  0.93750000000000000        0.0000000000000000     
  0.12500000000000000       0.93750000000000000        0.0000000000000000     
  0.12500000000000000       0.96875000000000000        0.0000000000000000     
   8.1250000000000003E-002  0.95625000000000004        0.0000000000000000     
  0.10312499999999999       0.95937499999999998        0.0000000000000000     
  0.10625000000000000       0.98124999999999996        0.0000000000000000     
   8.4375000000000006E-002  0.97812500000000002        0.0000000000000000     
   3.1250000000000000E-002  0.87500000000000000        0.0000000000000000     
   6.2500000000000000E-002  0.87500000000000000        0.0000000000000000     
   6.2500000000000000E-002  0.90625000000000000        0.0000000000000000     
   1.8749999999999999E-002  0.89375000000000004        0.0000000000000000     
   4.0625000000000001E-002  0.89687499999999998        0.0000000000000000     
   4.3749999999999997E-002  0.91874999999999996        0.0000000000000000     
   2.1874999999999999E-002  0.91562500000000002        0.0000000000000000     
   9.3750000000000000E-002  0.87500000000000000        0.0000000000000000     
  0.12500000000000000       0.87500000000000000        0.0000000000000000     
  0.12500000000000000       0.90625000000000000        0.0000000000000000     
   8.1250000000000003E-002  0.89375000000000004        0.0000000000000000     
  0.10312499999999999       0.89687499999999998        0.0000000000000000     
  0.10625000000000000       0.91874999999999996        0.0000000000000000     
   8.4375000000000006E-002  0.91562500000000002        0.0000000000000000     
  0.15625000000000000       0.93750000000000000        0.0000000000000000     
  0.18750000000000000       0.93750000000000000        0.0000000000000000     
  0.18750000000000000       0.96875000000000000        0.0000000000000000     
  0.14374999999999999       0.95625000000000004        0.0000000000000000     
  0.16562499999999999       0.95937499999999998        0.0000000000000000     
  0.16875000000000001       0.98124999999999996        0.0000000000000000     
  0.14687500000000001       0.97812500000000002        0.0000000000000000     
  0.21875000000000000       0.93750000000000000        0.0000000000000000     
  0.25000000000000000       0.93750000000000000        0.0000000000000000     
  0.25000000000000000       0.96875000000000000        0.0000000000000000     
  0.20624999999999999       0.95625000000000004        0.0000000000000000     
  0.22812499999999999       0.95937499999999998        0.0000000000000000     
  0.23125000000000001       0.98124999999999996        0.0000000000000000     
  0.20937500000000001       0.97812500000000002        0.0000000000000000     
  0.15625000000000000       0.87500000000000000        0.0000000000000000     
  0.18750000000000000       0.87500000000000000        0.0000000000000000     
  0.18750000000000000       0.90625000000000000        0.0000000000000000     
  0.14374999999999999       0.89375000000000004        0.0000000000000000     
  0.16562499999999999       0.89687499999999998        0.0000000000000000     
  0.16875000000000001       0.91874999999999996        0.0000000000000000     
  0.14687500000000001       0.91562500000000002        0.0000000000000000     
  0.21875000000000000       0.87500000000000000        0.0000000000000000     
  0.25000000000000000       0.87500000000000000        0.0000000000000000     
  0.25000000000000000       0.90625000000000000        0.0000000000000000     
  0.20624999999999999       0.89375000000000004        0.0000000000000000     
  0.22812499999999999       0.89687499999999998        0.0000000000000000     
  0.23125000000000001       0.91874999999999996        0.0000000000000000     
  0.20937500000000001       0.91562500000000002        0.0000000000000000     
   3.1250000000000000E-002  0.81250000000000000        0.0000000000000000     
   6.2500000000000000E-002  0.81250000000000000        0.0000000000000000     
   6.2500000000000000E-002  0.84375000000000000        0.0000000000000000     
   1.8749999999999999E-002  0.83125000000000004        0.0000000000000000     
   4.0625000000000001E-002  0.83437499999999998        0.0000000000000000     
   4.3749999999999997E-002  0.85624999999999996        0.0000000000000000     
   2.1874999999999999E-002  0.85312500000000002        0.0000000000000000     
   9.3750000000000000E-002  0.81250000000000000        0.0000000000000000     
  0.12500000000000000       0.81250000000000000        0.0000000000000000     
  0.12500000000000000       0.84375000000000000        0.0000000000000000     
   8.1250000000000003E-002  0.83125000000000004        0.0000000000000000     
  0.10312499999999999       0.83437499999999998        0.0000000000000000     
  0.10625000000000000       0.85624999999999996        0.0000000000000000     
   8.4375000000000006E-002  0.85312500000000002        0.0000000000000000     
   3.1250000000000000E-002  0.75000000000000000        0.0000000000000000     
   6.2500000000000000E-002  0.75000000000000000        0.0000000000000000     
   6.2500000000000000E-002  0.78125000000000000        0.0000000000000000     
   1.8749999999999999E-002  0.76875000000000004        0.0000000000000000     
   4.0625000000000001E-002  0.77187499999999998        0.0000000000000000     
   4.3749999999999997E-002  0.79374999999999996        0.0000000000000000     
   2.1874999999999999E-002  0.79062500000000002        0.0000000000000000     
   9.3750000000000000E-002  0.75000000000000000        0.0000000000000000     
  0.12500000000000000       0.75000000000000000        0.0000000000000000     
  0.12500000000000000       0.78125000000000000        0.0000000000000000     
   8.1250000000000003E-002  0.76875000000000004        0.0000000000000000     
  0.10312499999999999       0.77187499999999998        0.0000000000000000     
  0.10625000000000000       0.79374999999999996        0.0000000000000000     
   8.4375000000000006E-002  0.79062500000000002        0.0000000000000000     
  0.15625000000000000       0.81250000000000000        0.0000000000000000     
  0.18750000000000000       0.81250000000000000        0.0000000000000000     
  0.18750000000000000       0.84375000000000000        0.0000000000000000     
  0.14374999999999999       0.83125000000000004        0.0000000000000000     
  0.16562499999999999       0.83437499999999998        0.0000000000000000     
  0.16875000000000001       0.85624999999999996        0.0000000000000000     
  0.14687500000000001       0.85312500000000002        0.0000000000000000     
  0.21875000000000000       0.81250000000000000        0.0000000000000000     
  0.25000000000000000       0.81250000000000000        0.0000000000000000     
  0.25000000000000000       0.84375000000000000        0.0000000000000000     
  0.20624999999999999       0.83125000000000004        0.0000000000000000     
  0.22812499999999999       0.83437499999999998        0.0000000000000000     
  0.23125000000000001       0.85624999999999996        0.0000000000000000     
  0.20937500000000001       0.85312500000000002        0.0000000000000000     
  0.15625000000000000       0.75000000000000000        0.0000000000000000     
  0.18750000000000000       0.75000000000000000        0.0000000000000000     
  0.18750000000000000       0.78125000000000000        0.0000000000000000     
  0.14374999999999999       0.76875000000000004        0.0000000000000000     
  0.16562499999999999       0.77187499999999998        0.0000000000000000     
  0.16875000000000001       0.79374999999999996        0.0000000000000000     
  0.14687500000000001       0.79062500000000002        0.0000000000000000     
  0.21875000000000000       0.75000000000000000        0.0000000000000000     
  0.25000000000000000       0.75000000000000000        0.0000000000000000     
  0.25000000000000000       0.78125000000000000        0.0000000000000000     
  0.20624999999999999       0.76875000000000004        0.0000000000000000     
  0.22812499999999999       0.77187499999999998        0.0000000000000000     
  0.23125000000000001       0.79374999999999996        0.0000000000000000     
  0.20937500000000001       0.79062500000000002        0.0000000000000000     
  0.28125000000000000       0.93750000000000000        0.0000000000000000     
  0.31250000000000000       0.93750000000000000        0.0000000000000000     
  0.31250000000000000       0.96875000000000000        0.0000000000000000     
  0.26874999999999999       0.95625000000000004        0.0000000000000000     
  0.29062500000000002       0.95937499999999998        0.0000000000000000     
  0.29375000000000001       0.98124999999999996        0.0000000000000000     
  0.27187499999999998       0.97812500000000002        0.0000000000000000     
  0.34375000000000000       0.93750000000000000        0.0000000000000000     
  0.37500000000000000       0.93750000000000000        0.0000000000000000     
  0.37500000000000000       0.96875000000000000        0.0000000000000000     
  0.33124999999999999       0.95625000000000004        0.0000000000000000     
  0.35312500000000002       0.95937499999999998        0.0000000000000000     
  0.35625000000000001       0.98124999999999996        0.0000000000000000     
[...]
 CELL_DATA        3584
 SCALARS Nutrients float
 LOOKUP_TABLE default
    0.61715958308719220948E+00
    0.61719323756620869670E+00
    0.61689303323947097812E+00
    0.61689303300258779839E+00
    0.61719323700258810206E+00
    0.61715958207402388247E+00
    0.61739040024215896540E+00
    0.61752558098227816608E+00
    0.61767348181767678383E+00
    0.61767348312822478729E+00
    0.61752558272621782542E+00
    0.61739040186327709403E+00
    0.61740902480366344207E+00
    0.61740902442893852431E+00
    0.61617348211981171069E+00
    0.61594918077242988286E+00
    0.61528166860268029836E+00
    0.61516579058053910689E+00
    0.61568103756064329612E+00
    0.61552442486470548833E+00
    0.61598895914859674861E+00
    0.61637964131095757114E+00
    0.61682531523438777210E+00
    0.61698801980458428673E+00
    0.61668396712791728742E+00
    0.61670465182870148890E+00
    0.61627280377822002411E+00
    0.61618887095055663305E+00
    0.61552442648189875651E+00
    0.61568103873830071215E+00
    0.61516579072537636019E+00
    0.61528167054107751888E+00
    0.61594918235708617793E+00
    0.61617348354437817548E+00
    0.61670465297239218661E+00
    0.61668396765286981331E+00
    0.61698801967512939548E+00
    0.61682531626348091613E+00
    0.61637964321109617316E+00
    0.61598896134844849382E+00
    0.61618887232021790634E+00
    0.61627280502374326421E+00
    0.61407002652941167220E+00
    0.61388441621351830246E+00
    0.61278128335801496096E+00
    0.61278128402766562921E+00
    0.61388441538423088595E+00
    0.61407002444990310686E+00
    0.61501205794279678596E+00
    0.61523727305931730225E+00
    0.61595600644165837689E+00
    0.61595600805686878676E+00
    0.61523727491454416327E+00
    0.61501205977310779982E+00
    0.61462880702155342494E+00
    0.61462880660548824263E+00
    0.61389610920716253251E+00
    0.61349602175666617665E+00
    0.61244484655925002237E+00
    0.61229483627126846113E+00
    0.61308219517794770859E+00
    0.61287358680431347491E+00
    0.61355420042903452416E+00
    0.61415955962462986939E+00
    0.61488699820205583446E+00
    0.61519030519424777737E+00
    0.61469181218998203420E+00
    0.61479480054267754419E+00
    0.61399930691120840898E+00
    0.61386059735756126621E+00
    0.61045124705879960647E+00
    0.61000668047172457165E+00
    0.60860376981598596213E+00
    0.60853607955250654804E+00
    0.60962990219966206595E+00
    0.60947050983961126303E+00
    0.61031182735815592277E+00
    0.61104975567958685900E+00
    0.61200350538929237931E+00
    0.61240414320618852262E+00
    0.61168361802666737503E+00
    0.61176584370246367417E+00
    0.61076055020918251781E+00
    0.61061237243869903590E+00
    0.61061401440455076450E+00
    0.61023080289639086704E+00
    0.60842249093605460519E+00
    0.60846972329888759923E+00
    0.61022948209603056213E+00
    0.61057477009796368161E+00
    0.61202000976320980463E+00
    0.61237938240351319497E+00
    0.61356273085880563833E+00
    0.61363837001855348063E+00
    0.61247531218525697039E+00
    0.61223307679185645647E+00
    0.61142515317750889547E+00
    0.61141089264397452396E+00
    0.60514120748839461683E+00
    0.60480029215383823704E+00
    0.60222497255251017378E+00
    0.60256534611004430868E+00
    0.60518985961265214790E+00
    0.60595409241636444264E+00
    0.60794671779969489123E+00
    0.60826610042554640767E+00
    0.60992288441026176748E+00
    0.60995140345389398107E+00
    0.60815938476176023553E+00
    0.60765202685518249215E+00
    0.60668835707958213010E+00
    0.60676110107349201517E+00
    0.61287358428989902048E+00
    0.61308219066431313138E+00
    0.61229483226852099431E+00
    0.61244484489309114483E+00
    0.61349601846705448249E+00
    0.61389610797422300426E+00
    0.61479479986115537216E+00
    0.61469180919322796708E+00
    0.61519030450897804752E+00
    0.61488699712430749944E+00
    0.61415955629751883826E+00
    0.61355419763288954194E+00
    0.61386059170053342005E+00
    0.61399930151812687207E+00
    0.61057477051814879054E+00
    0.61022948218378736396E+00
    0.60846972192326198581E+00
    0.60842249135589365761E+00
    0.61023080221404824020E+00
    0.61061401289921890534E+00
    0.61223307608309096572E+00
    0.61247531229417528920E+00
    0.61363837085366368385E+00
    0.61356273124491000903E+00
    0.61237938239169609211E+00
    0.61202000882628804224E+00
    0.61141089269547177487E+00
    0.61142515315014012156E+00
    0.60947050806251168442E+00
    0.60962989800226496939E+00
    0.60853607495435135810E+00
    0.60860376738515364892E+00
    0.61000667603745228895E+00
    0.61045124337982026308E+00
    0.61176583961251917998E+00
    0.61168361305354335133E+00
    0.61240413948808192224E+00
    0.61200350220801946755E+00
    0.61104975200820588199E+00
    0.61031182490414903619E+00
    0.61061236721107869929E+00
    0.61076054474914553971E+00
    0.60595409307430880830E+00
    0.60518985929941737645E+00
    0.60256534425516616871E+00
    0.60222497241579431293E+00
    0.60480029079586805629E+00
    0.60514120592355247208E+00
    0.60765202538594109694E+00
    0.60815938363537558331E+00
    0.60995140278997106442E+00
    0.60992288281678452844E+00
    0.60826609928700337004E+00
    0.60794671646151188238E+00
    0.60676110018726336914E+00
    0.60668835603727566674E+00
    0.60489538161678080286E+00
    0.60416333402332667024E+00
    0.60109389132284241075E+00
    0.60109389214305108950E+00
    0.60416333309836578458E+00
    0.60489537943340143666E+00
    0.60751852362450953216E+00
    0.60792727580399463783E+00
    0.60992676049906136004E+00
    0.60992676022249403545E+00
    0.60792727615546837683E+00
    0.60751852455883814663E+00
    0.60617019805964234003E+00
    0.60617019787217307769E+00
    0.59527107275857127355E+00
    0.59450163220668750252E+00
    0.58976719156940637934E+00
    0.59028840875931898324E+00
    0.59523008368020335901E+00
    0.59687461284102438785E+00
    0.60075132680253195971E+00
    0.60101040518990700434E+00
    0.60399712858207210697E+00
    0.60384470989742211611E+00
    0.60055894111315255568E+00
    0.59964750037448921738E+00
    0.59792141850795632596E+00
    0.59809436141102179096E+00
    0.59687461498922300684E+00
    0.59523008410716427008E+00
    0.59028840712365937549E+00
    0.58976719155642243209E+00
    0.59450163076073581081E+00
    0.59527107071317109099E+00
    0.59964749919996218619E+00
    0.60055894077975091605E+00
    0.60384471095673675212E+00
    0.60399712877899447427E+00
    0.60101040545682271610E+00
    0.60075132737280201312E+00
    0.59809436118126690918E+00
    0.59792141790495934028E+00
    0.58008347010237437669E+00
    0.57776947177010051782E+00
    0.56923972351224094712E+00
    0.56923972413738876952E+00
    0.57776947048350324465E+00
    0.58008346729086179838E+00
    0.58717530250383742629E+00
    0.58802250399577982165E+00
    0.59337134265510127484E+00
    0.59337134213716635767E+00
    0.58802250426687430185E+00
    0.58717530331553058343E+00
    0.58319211483042565636E+00
    0.58319211459244146845E+00
    0.60618784183504514917E+00
    0.60588777813403660311E+00
    0.60424977769638399394E+00
    0.60440149190044212268E+00
    0.60578240947858397192E+00
    0.60579116747009420507E+00
    0.60669093083309477699E+00
    0.60743079606467831333E+00
    0.60849793734875945450E+00
    0.60892308374849091201E+00
    0.60798204895221197308E+00
    0.60790922976552064227E+00
    0.60693801524871637820E+00
    0.60684173408267794159E+00
    0.60175440898936205514E+00
    0.60180515246773036431E+00
    0.60013362478279086432E+00
    0.60061711438171294652E+00
    0.60219441038932242094E+00
    0.60247258178053386679E+00
    0.60329721070911912495E+00
    0.60388196636489810398E+00
    0.60489991948874377581E+00
    0.60525412816453794118E+00
    0.60414170368629505070E+00
    0.60377727439740036530E+00
    0.60314034319484544078E+00
    0.60315930618639945759E+00
    0.59801781358827743595E+00
    0.59810228478901483751E+00
    0.59487933808071802311E+00
    0.59581624829140478194E+00
    0.59938482882878718616E+00
    0.60083496232044719676E+00
    0.60330733813525017073E+00
    0.60335070016586356267E+00
    0.60539209111591829604E+00
    0.60520748579214256324E+00
    0.60264616460113329399E+00
    0.60155140725083355857E+00
    0.60088531234218656163E+00
    0.60117657191528950378E+00
    0.59033115016163340005E+00
    0.59127244720481797469E+00
    0.58776390494084151950E+00
    0.58952037308706251029E+00
    0.59387426290518807726E+00
    0.59616222368878557525E+00
    0.59891046845091622242E+00
    0.59844745246198371991E+00
    0.60066011449142375778E+00
    0.60009085287890928662E+00
    0.59676435569555630334E+00
    0.59477681664435855247E+00
    0.59497644323569320868E+00
    0.59560446469827088567E+00
    0.59798480106852602844E+00
    0.59853438436037842418E+00
    0.59705946492379458057E+00
    0.59791848080420406664E+00
    0.59954921100917213383E+00
    0.60014574209319304643E+00
    0.60076716292012533049E+00
    0.60105849146170475805E+00
    0.60185593688101957088E+00
    0.60204627006007327417E+00
    0.60085849856471451602E+00
    0.60011360122965606845E+00
    0.60007515974821212801E+00
    0.60025321946320497890E+00
    0.59562603280069181810E+00
    0.59671555069711124109E+00
    0.59562646740928870681E+00
    0.59682696760706666073E+00
    0.59835701022859810738E+00
    0.59925720639451407479E+00
    0.59958683463241568834E+00
    0.59950351724213690741E+00
    0.59994925895777306835E+00
    0.59991300594152607850E+00
    0.59876758507015792610E+00
    0.59763315561162588807E+00
    0.59833688860047218316E+00
    0.59868537422447332119E+00
    0.58371294268994655674E+00
    0.58576192122514147975E+00
    0.58243625337494830951E+00
    0.58502824862332503120E+00
    0.58980383663241864323E+00
    0.59288460327778447212E+00
    0.59562674056591891070E+00
    0.59452827615207570755E+00
    0.59662905784991160374E+00
    0.59557131494154014195E+00
    0.59168164621084684551E+00
    0.58867679317306409459E+00
    0.59017441399713843619E+00
    0.59118394604085955368E+00
    0.57958885153428207904E+00
    0.58271174261313318787E+00
    0.57996621406324666559E+00
    0.58321984507850632706E+00
    0.58797720826720523135E+00
    0.59163741173295525400E+00
    0.59409876691835927787E+00
    0.59237547019426817219E+00
    0.59410597869881454081E+00
    0.59256664039990947224E+00
    0.58845138943523300767E+00
    0.58455331834879975528E+00
    0.58746077071961677607E+00
    0.58880743313817673901E+00
    0.58164921167449323836E+00
    0.58164493702289676857E+00
    0.57525400547076754876E+00
    0.57706417099209794674E+00
    0.58428495084806442161E+00
    0.58752524338905431911E+00
    0.59265949458363142988E+00
    0.59226562505589419594E+00
    0.59620121300673378784E+00
    0.59553920518847824894E+00
    0.59049012928822419699E+00
    0.58834718972693644812E+00
    0.58711047192516152560E+00
    0.58775759156736939737E+00
    0.56595222077149742734E+00
    0.56786415404890566716E+00
    0.56060573415732273261E+00
    0.56432991905934104526E+00
    0.57355857650718833352E+00
    0.57879062601006769917E+00
    0.58478653807841662893E+00
    0.58322355701638262104E+00
    0.58772332454290820980E+00
    0.58614317016751982248E+00
    0.57917366038525153193E+00
    0.57496710269584183628E+00
    0.57559598467924699694E+00
    0.57702389585357516388E+00
    0.55294414329822405563E+00
    0.55136476915155285816E+00
    0.53833983975793542331E+00
    0.54087293365172006698E+00
    0.55491192605014361128E+00
    0.56071280022981373481E+00
    0.57094141668108644438E+00
    0.57058040303469403920E+00
    0.57830623320973362222E+00
    0.57741151909769417028E+00
    0.56823143018718735853E+00
    0.56526830106510306262E+00
    0.56130815623951624271E+00
    0.56217269044134321465E+00
    0.51790364555637979915E+00
    0.52066617097600575992E+00
    0.50545672161312782400E+00
    0.51250282674327951593E+00
    0.53141767936947037487E+00
    0.54197440463448454118E+00
    0.55443955011828260915E+00
    0.55139252358397983222E+00
    0.56070975352095997479E+00
    0.55775850271134563840E+00
    0.54383446576742644485E+00
    0.53618250567620562297E+00
    0.53613711758627780046E+00
    0.53882393182123655695E+00
    0.55219680085005029557E+00
    0.55664424411503399259E+00
    0.54963540462848070600E+00
    0.55525941991645488827E+00
    0.56562626951836936229E+00
    0.57267130706356206282E+00
    0.57889329650076626343E+00
    0.57594150137063904182E+00
    0.58040187281049349100E+00
    0.57768593461007289314E+00
    0.56922153882803905312E+00
    0.56261568322902266726E+00
    0.56614618555278450884E+00
    0.56844681609713365589E+00
    0.54369526386826150244E+00
    0.55047856262736660771E+00
    0.54458449415503873414E+00
    0.55162971123769011239E+00
    0.56209041372910406587E+00
    0.57035751774343534937E+00
    0.57616846398224486059E+00
    0.57196578755347493583E+00
    0.57583862155253939807E+00
    0.57208105084436711163E+00
    0.56292768384810432103E+00
    0.55430201325379913069E+00
    0.56084061636981275001E+00
    0.56386591041068323538E+00
    0.48769110135076199075E+00
    0.49622002659381092560E+00
    0.48202004798754127801E+00
    0.49303397576545626713E+00
    0.51434685042687311451E+00
    0.52898832010236951362E+00
    0.54210986262504501365E+00
    0.53588673079364457230E+00
    0.54524140334647774875E+00
    0.53961725425695272751E+00
    0.52208070776804049729E+00
    0.50879689627656277118E+00
    0.51557391481621761553E+00
    0.52026166568914156141E+00
    0.47006932316976796082E+00
    0.48327696750818333049E+00
    0.47159457579387492610E+00
    0.48540622980866504621E+00
    0.50684525860401286046E+00
    0.52411650841955947921E+00
    0.53645473094129292324E+00
    0.52752050516005555281E+00
    0.53569671231462789862E+00
    0.52774617177606297780E+00
    0.50865088990737306052E+00
    0.49105003185484219497E+00
    0.50429198147589038292E+00
    0.51052385505976494162E+00
    0.60579116656832410204E+00
    0.60578240613062750430E+00
    0.60440148743716015645E+00
    0.60424977530868961839E+00
    0.60588777396343207471E+00
    0.60618783826077593524E+00
    0.60790922530137292412E+00
    0.60798204426504964815E+00
    0.60892308072542622455E+00
    0.60849793498226190103E+00
    0.60743079353224282979E+00
    0.60669092929482704157E+00
    0.60684172988624618394E+00
    0.60693801056242357994E+00
    0.60083496351249288114E+00
    0.59938482885402888378E+00
    0.59581624671418031980E+00
    0.59487933819314564587E+00
    0.59810228369308104934E+00
    0.59801781224369543466E+00
    0.60155140552811470211E+00
    0.60264616360750589141E+00
    0.60520748554971059985E+00
    0.60539208982201908604E+00
    0.60335069926683349006E+00
    0.60330733696952998368E+00
    0.60117657124345547093E+00
    0.60088531148635715429E+00
    0.60247258177468465679E+00
    0.60219440782470934348E+00
    0.60061711034387665897E+00
    0.60013362288197025229E+00
    0.60180514903800619297E+00
    0.60175440595453844050E+00
    0.60377727016451565589E+00
    0.60414169978458320820E+00
    0.60525412605479000927E+00
    0.60489991812152277273E+00
    0.60388196495495272131E+00
    0.60329720979197209996E+00
    0.60315930309767751272E+00
    0.60314033954804002757E+00
    0.59616222539803320757E+00
    0.59387426336914128644E+00
    0.58952037179778482567E+00
    0.58776390539055467510E+00
    0.59127244653566601862E+00
    0.59033114931206887022E+00
    0.59477681527062953304E+00
    0.59676435521064463696E+00
    0.60009085327317113201E+00
    0.60066011380912298634E+00
    0.59844745211066563417E+00
    0.59891046778666057193E+00
    0.59560446450966153531E+00
    0.59497644285424844401E+00
    0.58752524607205502960E+00
    0.58428495178414552313E+00
    0.57706417004755694578E+00
    0.57525400612097343789E+00
    0.58164493618540225039E+00
    0.58164921057205876131E+00
    0.58834718824488563271E+00
    0.59049012903483366621E+00
    0.59553920642904534244E+00
    0.59620121349860422111E+00
    0.59226562559716844358E+00
    0.59265949542905038694E+00
    0.58775759169569152807E+00
    0.58711047166186203228E+00
    0.56071280466974482426E+00
    0.55491192909773956465E+00
    0.54087293637304001415E+00
    0.53833984338552898219E+00
    0.55136476946085966055E+00
    0.55294414188743390426E+00
    0.56526830030763153268E+00
    0.56823143076926396766E+00
    0.57741152100186610152E+00
    0.57830623414958448603E+00
    0.57058040433152401594E+00
    0.57094141833143463582E+00
    0.56217269174346795602E+00
    0.56130815702100078646E+00
    0.57879062896812016881E+00
    0.57355857793297937430E+00
    0.56432991856568104350E+00
    0.56060573582207151588E+00
    0.56786415443075977105E+00
    0.56595222124696320520E+00
    0.57496710211048329686E+00
    0.57917366091819211249E+00
    0.58614317203178722959E+00
    0.58772332560803997037E+00
    0.58322355811695025807E+00
    0.58478653928640678128E+00
    0.57702389668383469168E+00
    0.57559598526298860754E+00
    0.54197441006913260608E+00
    0.53141768579517434379E+00
    0.51250283391406725730E+00
    0.50545673473480245974E+00
    0.52066617986171714882E+00
    0.51790365498130930266E+00
    0.53618251005142447685E+00
    0.54383447037421850379E+00
    0.55775850674079396896E+00
    0.56070975639226994236E+00
    0.55139252739375210766E+00
    0.55443955308780756841E+00
    0.53882393727488664403E+00
    0.53613712350546471885E+00
    0.60014574282460042554E+00
    0.59954920897948904557E+00
    0.59791847688512012038E+00
    0.59705946314747404546E+00
    0.59853438133777481234E+00
    0.59798479843391882937E+00
    0.60011359739048308892E+00
    0.60085849538456193031E+00
    0.60204626939016558929E+00
    0.60185593735697007212E+00
    0.60105849085793772169E+00
    0.60076716242378758182E+00
    0.60025321704398715283E+00
    0.60007515673338251982E+00
    0.59288460459364289434E+00
    0.58980383676234515722E+00
    0.58502824660026031545E+00
    0.58243625324487358075E+00
    0.58576192041200658700E+00
    0.58371294188608480180E+00
    0.58867679201821898616E+00
    0.59168164599266959147E+00
    0.59557131581462452452E+00
    0.59662905757380002569E+00
    0.59452827596435875446E+00
    0.59562673991734393919E+00
    0.59118394585021671883E+00
    0.59017441365581102541E+00
    0.59925720543877591950E+00
    0.59835700725316443016E+00
    0.59682696246287314512E+00
    0.59562646387329232223E+00
    0.59671554688138173095E+00
    0.59562602956314147917E+00
    0.59763315173928710511E+00
    0.59876758215829994914E+00
    0.59991300614615927778E+00
    0.59994926040343998785E+00
    0.59950351661189504870E+00
    0.59958683313657867853E+00
    0.59868537151674494634E+00
    0.59833688536052642704E+00
    0.59163740833718903023E+00
    0.58797720470058534303E+00
    0.58321983930954979236E+00
    0.57996620975021218047E+00
    0.58271173910189077993E+00
    0.57958884875989979957E+00
    0.58455331610228178363E+00
    0.58845138795829499134E+00
    0.59256664060892716428E+00
    0.59410597758407812652E+00
    0.59237546809359031830E+00
    0.59409876365741498550E+00
    0.58880743052580120089E+00
    0.58746076821160120307E+00
    0.57267130854446357535E+00
    0.56562626939447169239E+00
    0.55525941674674106352E+00
    0.54963540339292205061E+00
    0.55664424309174465044E+00
    0.55219680054383479817E+00
    0.56261568267832784418E+00
    0.56922153918115980797E+00
    0.57768593660027856007E+00
    0.58040187387948261044E+00
    0.57594150200340565871E+00
    0.57889329697951197318E+00
    0.56844681609407399225E+00
    0.56614618536477323563E+00
    0.52898831884206021225E+00
    0.51434684732290025799E+00
    0.49303396742747668258E+00
    0.48202004013674448757E+00
    0.49622002437726164814E+00
    0.48769110508932095316E+00
    0.50879690152442091922E+00
    0.52208071056678340138E+00
    0.53961725815528349681E+00
    0.54524140517490971014E+00
    0.53588673093543270909E+00
    0.54210986170982267129E+00