# vtk DataFile Version 3.0
LAPLACIEN  2D
ASCII
DATASET UNSTRUCTURED_GRID
 POINTS        1857  float
   3.1250000000000000E-002  0.93750000000000000        0.0000000000000000     
   6.2500000000000000E-002  0.93750000000000000        0.0000000000000000     
   6.2500000000000000E-002  0.96875000000000000        0.0000000000000000     
   1.8749999999999999E-002  0.95625000000000004        0.0000000000000000     
   4.0625000000000001E-002  0.95937499999999998        0.0000000000000000     
   4.3749999999999997E-002  0.98124999999999996        0.0000000000000000     
   2.1874999999999999E-002  0.97812500000000002        0.0000000000000000     
   9.3750000000000000E-002  0.93750000000000000        0.0000000000000000     
  0.12500000000000000       0.93750000000000000        0.0000000000000000     
  0.12500000000000000       0.96875000000000000        0.0000000000000000     
   8.1250000000000003E-002  0.95625000000000004        0.0000000000000000     
  0.10312499999999999       0.95937499999999998        0.0000000000000000     
  0.10625000000000000       0.98124999999999996        0.0000000000000000     
   8.4375000000000006E-002  0.97812500000000002        0.0000000000000000     
   3.1250000000000000E-002  0.87500000000000000        0.0000000000000000     
   6.2500000000000000E-002  0.87500000000000000        0.0000000000000000     
   6.2500000000000000E-002  0.90625000000000000        0.0000000000000000     
   1.8749999999999999E-002  0.89375000000000004        0.0000000000000000     
   4.0625000000000001E-002  0.89687499999999998        0.0000000000000000     
   4.3749999999999997E-002  0.91874999999999996        0.0000000000000000     
   2.1874999999999999E-002  0.91562500000000002        0.0000000000000000     
   9.3750000000000000E-002  0.87500000000000000        0.0000000000000000     
  0.12500000000000000       0.87500000000000000        0.0000000000000000     
  0.12500000000000000       0.90625000000000000        0.0000000000000000     
   8.1250000000000003E-002  0.89375000000000004        0.0000000000000000     
  0.10312499999999999       0.89687499999999998        0.0000000000000000     
  0.10625000000000000       0.91874999999999996        0.0000000000000000     
   8.4375000000000006E-002  0.91562500000000002        0.0000000000000000     
  0.15625000000000000       0.93750000000000000        0.0000000000000000     
  0.18750000000000000       0.93750000000000000        0.0000000000000000     
  0.18750000000000000       0.96875000000000000        0.0000000000000000     
  0.14374999999999999       0.95625000000000004        0.0000000000000000     
  0.16562499999999999       0.95937499999999998        0.0000000000000000     
  0.16875000000000001       0.98124999999999996        0.0000000000000000     
  0.14687500000000001       0.97812500000000002        0.0000000000000000     
  0.21875000000000000       0.93750000000000000        0.0000000000000000     
  0.25000000000000000       0.93750000000000000        0.0000000000000000     
  0.25000000000000000       0.96875000000000000        0.0000000000000000     
  0.20624999999999999       0.95625000000000004        0.0000000000000000     
  0.22812499999999999       0.95937499999999998        0.0000000000000000     
  0.23125000000000001       0.98124999999999996        0.0000000000000000     
  0.20937500000000001       0.97812500000000002        0.0000000000000000     
  0.15625000000000000       0.87500000000000000        0.0000000000000000     
  0.18750000000000000       0.87500000000000000        0.0000000000000000     
  0.18750000000000000       0.90625000000000000        0.0000000000000000     
  0.14374999999999999       0.89375000000000004        0.0000000000000000     
  0.16562499999999999       0.89687499999999998        0.0000000000000000     
  0.16875000000000001       0.91874999999999996        0.0000000000000000     
  0.14687500000000001       0.91562500000000002        0.0000000000000000     
  0.21875000000000000       0.87500000000000000        0.0000000000000000     
  0.25000000000000000       0.87500000000000000        0.0000000000000000     
  0.25000000000000000       0.90625000000000000        0.0000000000000000     
  0.20624999999999999       0.89375000000000004        0.0000000000000000     
  0.22812499999999999       0.89687499999999998        0.0000000000000000     
  0.23125000000000001       0.91874999999999996        0.0000000000000000     
  0.20937500000000001       0.91562500000000002        0.0000000000000000     
   3.1250000000000000E-002  0.81250000000000000        0.0000000000000000     
   6.2500000000000000E-002  0.81250000000000000        0.0000000000000000     
   6.2500000000000000E-002  0.84375000000000000        0.0000000000000000     
   1.8749999999999999E-002  0.83125000000000004        0.0000000000000000     
   4.0625000000000001E-002  0.83437499999999998        0.0000000000000000     
   4.3749999999999997E-002  0.85624999999999996        0.0000000000000000     
   2.1874999999999999E-002  0.85312500000000002        0.0000000000000000     
   9.3750000000000000E-002  0.81250000000000000        0.0000000000000000     
  0.12500000000000000       0.81250000000000000        0.0000000000000000     
  0.12500000000000000       0.84375000000000000        0.0000000000000000     
   8.1250000000000003E-002  0.83125000000000004        0.0000000000000000     
  0.10312499999999999       0.83437499999999998        0.0000000000000000     
  0.10625000000000000       0.85624999999999996        0.0000000000000000     
   8.4375000000000006E-002  0.85312500000000002        0.0000000000000000     
   3.1250000000000000E-002  0.75000000000000000        0.0000000000000000     
   6.2500000000000000E-002  0.75000000000000000        0.0000000000000000     
   6.2500000000000000E-002  0.78125000000000000        0.0000000000000000     
   1.8749999999999999E-002  0.76875000000000004        0.0000000000000000     
   4.0625000000000001E-002  0.77187499999999998        0.0000000000000000     
   4.3749999999999997E-002  0.79374999999999996        0.0000000000000000     
   2.1874999999999999E-002  0.79062500000000002        0.0000000000000000     
   9.3750000000000000E-002  0.75000000000000000        0.0000000000000000     
  0.12500000000000000       0.75000000000000000        0.0000000000000000     
  0.12500000000000000       0.78125000000000000        0.0000000000000000     
   8.1250000000000003E-002  0.76875000000000004        0.0000000000000000     
  0.10312499999999999       0.77187499999999998        0.0000000000000000     
  0.10625000000000000       0.79374999999999996        0.0000000000000000     
   8.4375000000000006E-002  0.79062500000000002        0.0000000000000000     
  0.15625000000000000       0.81250000000000000        0.0000000000000000     
  0.18750000000000000       0.81250000000000000        0.0000000000000000     
  0.18750000000000000       0.84375000000000000        0.0000000000000000     
  0.14374999999999999       0.83125000000000004        0.0000000000000000     
  0.16562499999999999       0.83437499999999998        0.0000000000000000     
  0.16875000000000001       0.85624999999999996        0.0000000000000000     
  0.14687500000000001       0.85312500000000002        0.0000000000000000     
  0.21875000000000000       0.81250000000000000        0.0000000000000000     
  0.25000000000000000       0.81250000000000000        0.0000000000000000     
  0.25000000000000000       0.84375000000000000        0.0000000000000000     
  0.20624999999999999       0.83125000000000004        0.0000000000000000     
  0.22812499999999999       0.83437499999999998        0.0000000000000000     
  0.23125000000000001       0.85624999999999996        0.0000000000000000     
  0.20937500000000001       0.85312500000000002        0.0000000000000000     
  0.15625000000000000       0.75000000000000000        0.0000000000000000     
  0.18750000000000000       0.75000000000000000        0.0000000000000000     
  0.18750000000000000       0.78125000000000000        0.0000000000000000     
  0.14374999999999999       0.76875000000000004        0.0000000000000000     
  0.16562499999999999       0.77187499999999998        0.0000000000000000     
  0.16875000000000001       0.79374999999999996        0.0000000000000000     
  0.14687500000000001       0.79062500000000002        0.0000000000000000     
  0.21875000000000000       0.75000000000000000        0.0000000000000000     
  0.25000000000000000       0.75000000000000000        0.0000000000000000     
  0.25000000000000000       0.78125000000000000        0.0000000000000000     
  0.20624999999999999       0.76875000000000004        0.0000000000000000     
  0.22812499999999999       0.77187499999999998        0.0000000000000000     
  0.23125000000000001       0.79374999999999996        0.0000000000000000     
  0.20937500000000001       0.79062500000000002        0.0000000000000000     
  0.28125000000000000       0.93750000000000000        0.0000000000000000     
  0.31250000000000000       0.93750000000000000        0.0000000000000000     
  0.31250000000000000       0.96875000000000000        0.0000000000000000     
  0.26874999999999999       0.95625000000000004        0.0000000000000000     
  0.29062500000000002       0.95937499999999998        0.0000000000000000     
  0.29375000000000001       0.98124999999999996        0.0000000000000000     
  0.27187499999999998       0.97812500000000002        0.0000000000000000     
  0.34375000000000000       0.93750000000000000        0.0000000000000000     
  0.37500000000000000       0.93750000000000000        0.0000000000000000     
  0.37500000000000000       0.96875000000000000        0.0000000000000000     
  0.33124999999999999       0.95625000000000004        0.0000000000000000     
  0.35312500000000002       0.95937499999999998        0.0000000000000000     
  0.35625000000000001       0.98124999999999996        0.0000000000000000     
[...]
 CELL_DATA        3584
 SCALARS Nutrients float
 LOOKUP_TABLE default
    0.61715883592995091078E+00
    0.61719250401855207944E+00
    0.61689229385629806846E+00
    0.61689229409262014148E+00
    0.61719250330329700205E+00
    0.61715883377137203958E+00
    0.61738959340303678491E+00
    0.61752477656985127474E+00
    0.61767259026968723834E+00
    0.61767259144010222549E+00
    0.61752477807088357320E+00
    0.61738959514891544877E+00
    0.61740838439879053290E+00
    0.61740838406130416072E+00
    0.61617304365834468793E+00
    0.61594900370374561227E+00
    0.61528172900649447108E+00
    0.61516599691543716322E+00
    0.61568116766348968127E+00
    0.61552469730168202222E+00
    0.61598900805830003602E+00
    0.61637946523120124009E+00
    0.61682481516413067979E+00
    0.61698736688806954387E+00
    0.61668348736325506732E+00
    0.61670399752611693156E+00
    0.61627271366690117294E+00
    0.61618887114873055477E+00
    0.61552469894564909580E+00
    0.61568116811555562151E+00
    0.61516599639618674278E+00
    0.61528172959688531840E+00
    0.61594900367495331039E+00
    0.61617304327478461534E+00
    0.61670399763636474244E+00
    0.61668348752747581543E+00
    0.61698736779970397848E+00
    0.61682481668176492029E+00
    0.61637946647608832240E+00
    0.61598900932071831704E+00
    0.61618887155884505269E+00
    0.61627271389091375919E+00
    0.61407064446876613584E+00
    0.61388519120158868692E+00
    0.61278266760394450863E+00
    0.61278266817526749755E+00
    0.61388519076599723512E+00
    0.61407064321154436470E+00
    0.61501220777490583913E+00
    0.61523734655092809920E+00
    0.61595564851177064813E+00
    0.61595564894732379724E+00
    0.61523734677933050730E+00
    0.61501220812015211514E+00
    0.61462932823931248905E+00
    0.61462932817286108911E+00
    0.61389696218848732734E+00
    0.61349729352525328441E+00
    0.61244661716344228619E+00
    0.61229671324713208502E+00
    0.61308384520027603415E+00
    0.61287534433224710728E+00
    0.61355571301989597632E+00
    0.61416076725365653655E+00
    0.61488774627471898260E+00
    0.61519079305875246089E+00
    0.61469254234302206363E+00
    0.61479522870832903347E+00
    0.61400059234637649475E+00
    0.61386201006526475155E+00
    0.61045431216584289391E+00
    0.61000990345992323061E+00
    0.60860796226980462542E+00
    0.60853980398956342146E+00
    0.60963286312956821433E+00
    0.60947311966270689698E+00
    0.61031431899215060621E+00
    0.61105221066238379901E+00
    0.61200564472257412696E+00
    0.61240610177529575253E+00
    0.61168590650296028599E+00
    0.61176802182304157451E+00
    0.61076336501592831674E+00
    0.61061517633520834281E+00
    0.61061758856965220321E+00
    0.61023496406549160298E+00
    0.60842944281783506444E+00
    0.60847631286538350626E+00
    0.61023345667291517547E+00
    0.61057803035960445115E+00
    0.61202206747521181729E+00
    0.61238126176851470639E+00
    0.61356372566864036955E+00
    0.61363926231406473732E+00
    0.61247708380818399743E+00
    0.61223494152618573860E+00
    0.61142801379638267445E+00
    0.61141374491168920535E+00
    0.60515667849336651773E+00
    0.60481609358886745387E+00
    0.60225080452148460619E+00
    0.60258771728322391148E+00
    0.60520247657321235568E+00
    0.60596299791675445334E+00
    0.60795208958461399718E+00
    0.60827187673080929109E+00
    0.60992654772207643976E+00
    0.60995527325586540446E+00
    0.60816624852104606003E+00
    0.60766033091736637584E+00
    0.60669812942995904326E+00
    0.60677026639389353146E+00
    0.61287534556547096365E+00
    0.61308384474890609273E+00
    0.61229671235530380713E+00
    0.61244661738390560046E+00
    0.61349729259839747009E+00
    0.61389696150425232535E+00
    0.61479522816119069883E+00
    0.61469254139216011890E+00
    0.61519079332024328988E+00
    0.61488774710622273734E+00
    0.61416076745421066541E+00
    0.61355571371458850205E+00
    0.61386200870744966895E+00
    0.61400059078898916454E+00
    0.61057803154136147672E+00
    0.61023345709559295713E+00
    0.60847631228143606030E+00
    0.60842944340030369332E+00
    0.61023496371938967808E+00
    0.61061758749184258388E+00
    0.61223494109833787036E+00
    0.61247708381391852139E+00
    0.61363926261458090483E+00
    0.61356372621307364579E+00
    0.61238126198094267050E+00
    0.61202206761156363601E+00
    0.61141374504030043813E+00
    0.61142801384118250496E+00
    0.60947312089802752055E+00
    0.60963286266513738720E+00
    0.60853980309862076847E+00
    0.60860796248402981856E+00
    0.61000990249001119103E+00
    0.61045431140309969198E+00
    0.61176802104874483668E+00
    0.61168590540479084172E+00
    0.61240610180335774970E+00
    0.61200564542651281208E+00
    0.61105221080767169184E+00
    0.61031431967204852196E+00
    0.61061517492967898324E+00
    0.61076336339424264210E+00
    0.60596299911859419218E+00
    0.60520247700554097303E+00
    0.60258771671536426329E+00
    0.60225080511740236577E+00
    0.60481609324157092900E+00
    0.60515667740706569067E+00
    0.60766033047311018844E+00
    0.60816624850418476989E+00
    0.60995527350572309455E+00
    0.60992654821872360760E+00
    0.60827187692848483369E+00
    0.60795208972017400484E+00
    0.60677026651813248392E+00
    0.60669812946759105188E+00
    0.60491290729653290903E+00
    0.60418477518159441342E+00
    0.60113148410774797092E+00
    0.60113148469708477251E+00
    0.60418477481962618025E+00
    0.60491290622257620768E+00
    0.60752783083823203025E+00
    0.60793594339766321433E+00
    0.60993133580507441494E+00
    0.60993133580808489569E+00
    0.60793594350284185790E+00
    0.60752783128201648388E+00
    0.60618397301463167182E+00
    0.60618397297566128934E+00
    0.59536193601599363134E+00
    0.59460152651294573278E+00
    0.58993288503459095917E+00
    0.59044216144956762626E+00
    0.59531785950518456563E+00
    0.59694035269879941463E+00
    0.60078706340498533311E+00
    0.60104698392841227061E+00
    0.60401748690506307238E+00
    0.60386648230990058739E+00
    0.60060063398752161490E+00
    0.59969632309642639800E+00
    0.59798358029701359495E+00
    0.59815404404138672323E+00
    0.59694035380140719749E+00
    0.59531785989419894189E+00
    0.59044216088308765222E+00
    0.58993288562504031525E+00
    0.59460152613903072272E+00
    0.59536193493383793296E+00
    0.59969632264288497137E+00
    0.60060063387722617545E+00
    0.60386648229825956591E+00
    0.60401748690171519485E+00
    0.60104698403778844540E+00
    0.60078706386412350504E+00
    0.59815404408868133590E+00
    0.59798358025916054093E+00
    0.58046729833198462689E+00
    0.57822659571335199846E+00
    0.56997904746360106287E+00
    0.56997904810580890533E+00
    0.57822659526040731670E+00
    0.58046729718507839024E+00
    0.58739302067972831711E+00
    0.58822743921102460529E+00
    0.59348640187399104295E+00
    0.59348640187836432247E+00
    0.58822743930680831959E+00
    0.58739302110561253389E+00
    0.58350142978059382770E+00
    0.58350142972813590081E+00
    0.60619420876286811417E+00
    0.60589332517487837215E+00
    0.60425751718450226857E+00
    0.60440743881600156318E+00
    0.60578621208594074510E+00
    0.60579383713806989054E+00
    0.60669338371739367499E+00
    0.60743355273183119447E+00
    0.60850051929895399017E+00
    0.60892574748863337319E+00
    0.60798542690538770472E+00
    0.60791331813415605545E+00
    0.60694190703736061732E+00
    0.60684528774276835783E+00
    0.60176616578854358330E+00
    0.60181431745678815037E+00
    0.60014714293681181712E+00
    0.60062675429179024356E+00
    0.60219967486606373885E+00
    0.60247579713527688039E+00
    0.60329971969985951574E+00
    0.60388484840818057453E+00
    0.60490233261005788012E+00
    0.60525682642385070231E+00
    0.60414609302390098744E+00
    0.60378381095351174590E+00
    0.60314561230397667480E+00
    0.60316380707181482812E+00
    0.59806784293041348466E+00
    0.59814790159223640842E+00
    0.59495092156090845226E+00
    0.59587394821210093454E+00
    0.59941625994785241449E+00
    0.60085475228626838984E+00
    0.60331843260053585887E+00
    0.60336424528090371044E+00
    0.60540053589997355754E+00
    0.60521763708791342928E+00
    0.60266579919318596925E+00
    0.60157834123661824144E+00
    0.60091170916147507164E+00
    0.60120006963148531209E+00
    0.59045231259953423475E+00
    0.59137368451258343072E+00
    0.58791527296119627799E+00
    0.58963598694953522905E+00
    0.59393693341718545309E+00
    0.59619915111324306434E+00
    0.59893089500191665220E+00
    0.59847444417513373516E+00
    0.60067690042650845328E+00
    0.60011281842274433185E+00
    0.59680899067179926654E+00
    0.59484328788584250880E+00
    0.59503337975084125144E+00
    0.59565336477011043836E+00
    0.59800461836647778036E+00
    0.59854895361266680087E+00
    0.59708051407569406877E+00
    0.59793303455155077941E+00
    0.59955714552443706289E+00
    0.60015063797999101958E+00
    0.60077088538523315542E+00
    0.60106256011736314271E+00
    0.60185898006628901769E+00
    0.60204968495023714059E+00
    0.60086501510007439553E+00
    0.60012415857251688589E+00
    0.60008310525275143643E+00
    0.60025988416329134623E+00
    0.59565381450315246781E+00
    0.59673486627544847227E+00
    0.59565254842000636692E+00
    0.59684439787219067952E+00
    0.59836693562753040521E+00
    0.59926326209198876871E+00
    0.59959182954756895523E+00
    0.59950920787234951437E+00
    0.59995384930939610335E+00
    0.59991816847999013262E+00
    0.59877695093562588458E+00
    0.59764857020987849356E+00
    0.59834764268497220296E+00
    0.59869428828914839080E+00
    0.58393934765497534922E+00
    0.58593771096311308977E+00
    0.58268500431166192488E+00
    0.58520949142433187351E+00
    0.58990326141257187764E+00
    0.59294054535931328687E+00
    0.59565871960104521676E+00
    0.59457306657409425554E+00
    0.59665801553687602965E+00
    0.59561111670636679438E+00
    0.59176287409306749243E+00
    0.58880459404861040795E+00
    0.59027245481868728660E+00
    0.59126587275783404341E+00
    0.57991487593271950907E+00
    0.58294709688783552526E+00
    0.58027728657408561563E+00
    0.58343634945131284120E+00
    0.58809867112142033552E+00
    0.59170288089807532295E+00
    0.59413817782399358514E+00
    0.59243424008490686017E+00
    0.59414661237804766714E+00
    0.59262475605100772835E+00
    0.58856767752399341553E+00
    0.58474493811449967939E+00
    0.58759233367765051348E+00
    0.58891451933309568734E+00
    0.58198440466181433628E+00
    0.58197620526117788131E+00
    0.57576620379249543458E+00
    0.57751058941104838063E+00
    0.58454300147583071467E+00
    0.58770491061874730043E+00
    0.59276056225482942619E+00
    0.59237925807406499601E+00
    0.59626878458239607195E+00
    0.59561702444948150248E+00
    0.59063818396468770189E+00
    0.58853554447677602912E+00
    0.58731455932398746178E+00
    0.58794612281964098166E+00
    0.56683215844598666688E+00
    0.56866283687687535497E+00
    0.56176316991775321341E+00
    0.56529025946064170860E+00
    0.57412217813129207133E+00
    0.57916120461098752337E+00
    0.58500262093757759985E+00
    0.58348608454617201247E+00
    0.58788961372735815125E+00
    0.58634646811860913207E+00
    0.57955546960643866683E+00
    0.57548532167989419062E+00
    0.57608668885370739599E+00
    0.57746328997170692787E+00
    0.55441348559459924239E+00
    0.55293354385123383299E+00
    0.54060930741260182497E+00
    0.54305466129339119430E+00
    0.55632569200558934508E+00
    0.56183519160308870166E+00
    0.57161736616820546519E+00
    0.57127764116248069826E+00
    0.57873517120663175994E+00
    0.57787086834892620324E+00
    0.56902171054226691194E+00
    0.56617252873149903625E+00
    0.56239377625881914469E+00
    0.56322163845482697830E+00
    0.52152850035017472852E+00
    0.52437751050869163549E+00
    0.51037621119901621647E+00
    0.51716660242126410996E+00
    0.53457151302927341519E+00
    0.54438139119827655410E+00
    0.55596841263968210800E+00
    0.55308682565765576733E+00
    0.56184136136458262545E+00
    0.55903512832674329136E+00
    0.54593483080171401056E+00
    0.53867867957112725019E+00
    0.53880142122448881903E+00
    0.54134368740698912692E+00
    0.55392582767030573709E+00
    0.55810185755572339072E+00
    0.55161472055671678660E+00
    0.55682777959148321845E+00
    0.56656535731916979337E+00
    0.57325799125861731653E+00
    0.57925022168720463611E+00
    0.57640699940358541831E+00
    0.58071565308434935915E+00
    0.57808887142678933024E+00
    0.56996610913882295169E+00
    0.56368031481798230864E+00
    0.56704321530138557250E+00
    0.56922825801799059597E+00
    0.54625305329953799394E+00
    0.55247740116232413321E+00
    0.54710089913891812863E+00
    0.55353165059551934224E+00
    0.56326080118282217946E+00
    0.57105360256725079537E+00
    0.57661509919569808869E+00
    0.57259269368055043525E+00
    0.57629305998891977580E+00
    0.57269287109001565383E+00
    0.56403153393578187025E+00
    0.55596010447817534317E+00
    0.56207892115243851539E+00
    0.56491493667849868032E+00
    0.49464744004932509336E+00
    0.50294989988382921009E+00
    0.49034314429591763229E+00
    0.50063010712629141263E+00
    0.51966855236659825756E+00
    0.53288151471937961201E+00
    0.54472228146664913861E+00
    0.53898559280254199066E+00
    0.54747140150285766858E+00
    0.54224369741460043404E+00
    0.52624203032634331301E+00
    0.51391888719429656973E+00
    0.52050522357078510272E+00
    0.52482326853200578221E+00
    0.48021360977785870761E+00
    0.49242856464336121070E+00
    0.48206855580988799970E+00
    0.49457126934635214921E+00
    0.51350023828339452781E+00
    0.52876314001555568822E+00
    0.53976923733580661757E+00
    0.53175212308675123829E+00
    0.53900102297855811972E+00
    0.53181465253369752944E+00
    0.51485394162247755112E+00
    0.49901790959898911781E+00
    0.51111571171582914630E+00
    0.51668074522640439206E+00
    0.60579383839816758339E+00
    0.60578621164710089175E+00
    0.60440743795448748088E+00
    0.60425751742536015776E+00
    0.60589332422636510422E+00
    0.60619420802522372416E+00
    0.60791331736953846399E+00
    0.60798542582234005316E+00
    0.60892574752851336140E+00
    0.60850052001870302831E+00
    0.60743355289616696169E+00
    0.60669338441962084030E+00
    0.60684528635790713214E+00
    0.60694190543509907165E+00
    0.60085475351059447480E+00
    0.59941626041263218472E+00
    0.59587394768703261239E+00
    0.59495092220005341144E+00
    0.59814790127740147252E+00
    0.59806784187542594289E+00
    0.60157834081410455074E+00
    0.60266579920354401700E+00
    0.60521763736552869339E+00
    0.60540053642583935289E+00
    0.60336424550687939306E+00
    0.60331843276273955379E+00
    0.60120006978444284762E+00
    0.60091170922754233441E+00
    0.60247579842364407110E+00
    0.60219967445621103153E+00
    0.60062675345985283570E+00
    0.60014714320702278183E+00
    0.60181431653533501436E+00
    0.60176616507225888508E+00
    0.60378381021727245415E+00
    0.60414609196892543608E+00
    0.60525682648934697738E+00
    0.60490233335535126269E+00
    0.60388484859833724272E+00
    0.60329972042898960538E+00
    0.60316380571439476288E+00
    0.60314561072931094365E+00
    0.59619915236456755281E+00
    0.59393693390355239980E+00
    0.58963598641926973087E+00
    0.58791527359061002134E+00
    0.59137368421020009013E+00
    0.59045231157729394234E+00
    0.59484328750536397123E+00
    0.59680899071171977788E+00
    0.60011281872222199674E+00
    0.60067690097285830753E+00
    0.59847444442614683435E+00
    0.59893089519342668225E+00
    0.59565336495146015139E+00
    0.59503337984419113482E+00
    0.58770491179177597463E+00
    0.58454300194715780314E+00
    0.57751058883647354847E+00
    0.57576620448238713390E+00
    0.58197620489704937619E+00
    0.58198440349403446348E+00
    0.58853554407143926497E+00
    0.59063818391152356213E+00
    0.59561702447519970782E+00
    0.59626878461569643441E+00
    0.59237925823229597988E+00
    0.59276056275204713764E+00
    0.58794612292521930552E+00
    0.58731455933634191258E+00
    0.56183519308950025106E+00
    0.55632569256485364662E+00
    0.54305466046370565181E+00
    0.54060930790289241088E+00
    0.55293354319602927571E+00
    0.55441348424341241330E+00
    0.56617252815268059862E+00
    0.56902171040378601852E+00
    0.57787086844433055433E+00
    0.57873517114939632133E+00
    0.57127764128618330197E+00
    0.57161736680937169641E+00
    0.56322163851460138595E+00
    0.56239377614338104117E+00
    0.57916120580078267466E+00
    0.57412217863387837724E+00
    0.56529025878648408998E+00
    0.56176317053673829882E+00
    0.56866283646361137638E+00
    0.56683215740603354327E+00
    0.57548532129351526176E+00
    0.57955546962792503507E+00
    0.58634646822750002837E+00
    0.58788961379441895261E+00
    0.58348608468452012321E+00
    0.58500262139994751998E+00
    0.57746329008399555072E+00
    0.57608668887097980171E+00
    0.54438139294329856988E+00
    0.53457151372245192977E+00
    0.51716660160957617087E+00
    0.51037621173954383913E+00
    0.52437751000322241346E+00
    0.52152849939836809501E+00
    0.53867867892942322694E+00
    0.54593483073487569790E+00
    0.55903512882055295119E+00
    0.56184136158389508253E+00
    0.55308682591476410195E+00
    0.55596841334509838894E+00
    0.54134368754859640838E+00
    0.53880142117265938939E+00
    0.60015063930248857549E+00
    0.59955714514844793417E+00
    0.59793303375468609406E+00
    0.59708051437970832698E+00
    0.59854895272243091586E+00
    0.59800461767865087381E+00
    0.60012415786623463099E+00
    0.60086501407567216582E+00
    0.60204968504457623268E+00
    0.60185898084062738889E+00
    0.60106256033759253299E+00
    0.60077088614633644692E+00
    0.60025988283729014849E+00
    0.60008310370922868238E+00
    0.59294054664805784238E+00
    0.58990326193829545343E+00
    0.58520949092060225993E+00
    0.58268500500437703238E+00
    0.58593771068690425619E+00
    0.58393934654928869588E+00
    0.58880459367409410110E+00
    0.59176287415379902335E+00
    0.59561111703229341341E+00
    0.59665801611106572544E+00
    0.59457306685537070212E+00
    0.59565871982648832539E+00
    0.59126587297002453081E+00
    0.59027245493864644033E+00
    0.59926326345951830277E+00
    0.59836693529605233799E+00
    0.59684439712326831096E+00
    0.59565254877108797515E+00
    0.59673486542692688595E+00
    0.59565381385517335300E+00
    0.59764856954024037083E+00
    0.59877694994896202285E+00
    0.59991816860979751969E+00
    0.59995385012026336558E+00
    0.59950920813179098268E+00
    0.59959183035064489431E+00
    0.59869428700395010967E+00
    0.59834764118162520052E+00
    0.59170288224395228838E+00
    0.58809867170153762306E+00
    0.58343634898518648146E+00
    0.58027728730119221279E+00
    0.58294709664640342872E+00
    0.57991487488010962092E+00
    0.58474493779941882909E+00
    0.58856767763955952777E+00
    0.59262475641705092411E+00
    0.59414661299384963211E+00
    0.59243424041909065192E+00
    0.59413817809928015645E+00
    0.58891451960405416521E+00
    0.58759233385487485979E+00
    0.57325799254008069639E+00
    0.56656535785894901469E+00
    0.55682777889559809115E+00
    0.55161472118355181493E+00
    0.55810185717890337109E+00
    0.55392582676455914825E+00
    0.56368031434026921733E+00
    0.56996610907987044214E+00
    0.57808887160618904755E+00
    0.58071565312640693879E+00
    0.57640699953928886679E+00
    0.57925022223325151050E+00
    0.56922825813092936542E+00
    0.56704321529724277529E+00
    0.53288151656849713778E+00
    0.51966855312843029946E+00
    0.50063010628696069659E+00
    0.49034314484364799336E+00
    0.50294989945509360751E+00
    0.49464743924441911815E+00
    0.51391888658870898965E+00
    0.52624203039579620089E+00
    0.54224369820523155017E+00
    0.54747140195599097723E+00
    0.53898559319940353429E+00
    0.54472228223229646193E+00