# vtk DataFile Version 3.0
LAPLACIEN  2D
ASCII
DATASET UNSTRUCTURED_GRID
 POINTS        1857  float
   3.1250000000000000E-002  0.93750000000000000        0.0000000000000000     
   6.2500000000000000E-002  0.93750000000000000        0.0000000000000000     
   6.2500000000000000E-002  0.96875000000000000        0.0000000000000000     
   1.8749999999999999E-002  0.95625000000000004        0.0000000000000000     
   4.0625000000000001E-002  0.95937499999999998        0.0000000000000000     
   4.3749999999999997E-002  0.98124999999999996        0.0000000000000000     
   2.1874999999999999E-002  0.97812500000000002        0.0000000000000000     
   9.3750000000000000E-002  0.93750000000000000        0.0000000000000000     
  0.12500000000000000       0.93750000000000000        0.0000000000000000     
  0.12500000000000000       0.96875000000000000        0.0000000000000000     
   8.1250000000000003E-002  0.95625000000000004        0.0000000000000000     
  0.10312499999999999       0.95937499999999998        0.0000000000000000     
  0.10625000000000000       0.98124999999999996        0.0000000000000000     
   8.4375000000000006E-002  0.97812500000000002        0.0000000000000000     
   3.1250000000000000E-002  0.87500000000000000        0.0000000000000000     
   6.2500000000000000E-002  0.87500000000000000        0.0000000000000000     
   6.2500000000000000E-002  0.90625000000000000        0.0000000000000000     
   1.8749999999999999E-002  0.89375000000000004        0.0000000000000000     
   4.0625000000000001E-002  0.89687499999999998        0.0000000000000000     
   4.3749999999999997E-002  0.91874999999999996        0.0000000000000000     
   2.1874999999999999E-002  0.91562500000000002        0.0000000000000000     
   9.3750000000000000E-002  0.87500000000000000        0.0000000000000000     
  0.12500000000000000       0.87500000000000000        0.0000000000000000     
  0.12500000000000000       0.90625000000000000        0.0000000000000000     
   8.1250000000000003E-002  0.89375000000000004        0.0000000000000000     
  0.10312499999999999       0.89687499999999998        0.0000000000000000     
  0.10625000000000000       0.91874999999999996        0.0000000000000000     
   8.4375000000000006E-002  0.91562500000000002        0.0000000000000000     
  0.15625000000000000       0.93750000000000000        0.0000000000000000     
  0.18750000000000000       0.93750000000000000        0.0000000000000000     
  0.18750000000000000       0.96875000000000000        0.0000000000000000     
  0.14374999999999999       0.95625000000000004        0.0000000000000000     
  0.16562499999999999       0.95937499999999998        0.0000000000000000     
  0.16875000000000001       0.98124999999999996        0.0000000000000000     
  0.14687500000000001       0.97812500000000002        0.0000000000000000     
  0.21875000000000000       0.93750000000000000        0.0000000000000000     
  0.25000000000000000       0.93750000000000000        0.0000000000000000     
  0.25000000000000000       0.96875000000000000        0.0000000000000000     
  0.20624999999999999       0.95625000000000004        0.0000000000000000     
  0.22812499999999999       0.95937499999999998        0.0000000000000000     
  0.23125000000000001       0.98124999999999996        0.0000000000000000     
  0.20937500000000001       0.97812500000000002        0.0000000000000000     
  0.15625000000000000       0.87500000000000000        0.0000000000000000     
  0.18750000000000000       0.87500000000000000        0.0000000000000000     
  0.18750000000000000       0.90625000000000000        0.0000000000000000     
  0.14374999999999999       0.89375000000000004        0.0000000000000000     
  0.16562499999999999       0.89687499999999998        0.0000000000000000     
  0.16875000000000001       0.91874999999999996        0.0000000000000000     
  0.14687500000000001       0.91562500000000002        0.0000000000000000     
  0.21875000000000000       0.87500000000000000        0.0000000000000000     
  0.25000000000000000       0.87500000000000000        0.0000000000000000     
  0.25000000000000000       0.90625000000000000        0.0000000000000000     
  0.20624999999999999       0.89375000000000004        0.0000000000000000     
  0.22812499999999999       0.89687499999999998        0.0000000000000000     
  0.23125000000000001       0.91874999999999996        0.0000000000000000     
  0.20937500000000001       0.91562500000000002        0.0000000000000000     
   3.1250000000000000E-002  0.81250000000000000        0.0000000000000000     
   6.2500000000000000E-002  0.81250000000000000        0.0000000000000000     
   6.2500000000000000E-002  0.84375000000000000        0.0000000000000000     
   1.8749999999999999E-002  0.83125000000000004        0.0000000000000000     
   4.0625000000000001E-002  0.83437499999999998        0.0000000000000000     
   4.3749999999999997E-002  0.85624999999999996        0.0000000000000000     
   2.1874999999999999E-002  0.85312500000000002        0.0000000000000000     
   9.3750000000000000E-002  0.81250000000000000        0.0000000000000000     
  0.12500000000000000       0.81250000000000000        0.0000000000000000     
  0.12500000000000000       0.84375000000000000        0.0000000000000000     
   8.1250000000000003E-002  0.83125000000000004        0.0000000000000000     
  0.10312499999999999       0.83437499999999998        0.0000000000000000     
  0.10625000000000000       0.85624999999999996        0.0000000000000000     
   8.4375000000000006E-002  0.85312500000000002        0.0000000000000000     
   3.1250000000000000E-002  0.75000000000000000        0.0000000000000000     
   6.2500000000000000E-002  0.75000000000000000        0.0000000000000000     
   6.2500000000000000E-002  0.78125000000000000        0.0000000000000000     
   1.8749999999999999E-002  0.76875000000000004        0.0000000000000000     
   4.0625000000000001E-002  0.77187499999999998        0.0000000000000000     
   4.3749999999999997E-002  0.79374999999999996        0.0000000000000000     
   2.1874999999999999E-002  0.79062500000000002        0.0000000000000000     
   9.3750000000000000E-002  0.75000000000000000        0.0000000000000000     
  0.12500000000000000       0.75000000000000000        0.0000000000000000     
  0.12500000000000000       0.78125000000000000        0.0000000000000000     
   8.1250000000000003E-002  0.76875000000000004        0.0000000000000000     
  0.10312499999999999       0.77187499999999998        0.0000000000000000     
  0.10625000000000000       0.79374999999999996        0.0000000000000000     
   8.4375000000000006E-002  0.79062500000000002        0.0000000000000000     
  0.15625000000000000       0.81250000000000000        0.0000000000000000     
  0.18750000000000000       0.81250000000000000        0.0000000000000000     
  0.18750000000000000       0.84375000000000000        0.0000000000000000     
  0.14374999999999999       0.83125000000000004        0.0000000000000000     
  0.16562499999999999       0.83437499999999998        0.0000000000000000     
  0.16875000000000001       0.85624999999999996        0.0000000000000000     
  0.14687500000000001       0.85312500000000002        0.0000000000000000     
  0.21875000000000000       0.81250000000000000        0.0000000000000000     
  0.25000000000000000       0.81250000000000000        0.0000000000000000     
  0.25000000000000000       0.84375000000000000        0.0000000000000000     
  0.20624999999999999       0.83125000000000004        0.0000000000000000     
  0.22812499999999999       0.83437499999999998        0.0000000000000000     
  0.23125000000000001       0.85624999999999996        0.0000000000000000     
  0.20937500000000001       0.85312500000000002        0.0000000000000000     
  0.15625000000000000       0.75000000000000000        0.0000000000000000     
  0.18750000000000000       0.75000000000000000        0.0000000000000000     
  0.18750000000000000       0.78125000000000000        0.0000000000000000     
  0.14374999999999999       0.76875000000000004        0.0000000000000000     
  0.16562499999999999       0.77187499999999998        0.0000000000000000     
  0.16875000000000001       0.79374999999999996        0.0000000000000000     
  0.14687500000000001       0.79062500000000002        0.0000000000000000     
  0.21875000000000000       0.75000000000000000        0.0000000000000000     
  0.25000000000000000       0.75000000000000000        0.0000000000000000     
  0.25000000000000000       0.78125000000000000        0.0000000000000000     
  0.20624999999999999       0.76875000000000004        0.0000000000000000     
  0.22812499999999999       0.77187499999999998        0.0000000000000000     
  0.23125000000000001       0.79374999999999996        0.0000000000000000     
  0.20937500000000001       0.79062500000000002        0.0000000000000000     
  0.28125000000000000       0.93750000000000000        0.0000000000000000     
  0.31250000000000000       0.93750000000000000        0.0000000000000000     
  0.31250000000000000       0.96875000000000000        0.0000000000000000     
  0.26874999999999999       0.95625000000000004        0.0000000000000000     
  0.29062500000000002       0.95937499999999998        0.0000000000000000     
  0.29375000000000001       0.98124999999999996        0.0000000000000000     
  0.27187499999999998       0.97812500000000002        0.0000000000000000     
  0.34375000000000000       0.93750000000000000        0.0000000000000000     
  0.37500000000000000       0.93750000000000000        0.0000000000000000     
  0.37500000000000000       0.96875000000000000        0.0000000000000000     
  0.33124999999999999       0.95625000000000004        0.0000000000000000     
  0.35312500000000002       0.95937499999999998        0.0000000000000000     
  0.35625000000000001       0.98124999999999996        0.0000000000000000     
[...]
 CELL_DATA        3584
 SCALARS Nutrients float
 LOOKUP_TABLE default
    0.61715746220849621029E+00
    0.61719112598442993356E+00
    0.61689092454189609072E+00
    0.61689092475869933274E+00
    0.61719112584539403965E+00
    0.61715746172955177062E+00
    0.61738813764279409924E+00
    0.61752325619443859672E+00
    0.61767090049699324705E+00
    0.61767090072513242127E+00
    0.61752325620744219492E+00
    0.61738813755852828269E+00
    0.61740701077957416132E+00
    0.61740701076969983774E+00
    0.61617187495281666720E+00
    0.61594793887775645125E+00
    0.61528081966016090476E+00
    0.61516514789207576985E+00
    0.61568029592469275535E+00
    0.61552401575735526951E+00
    0.61598806370358183404E+00
    0.61637838513685105912E+00
    0.61682359571722944480E+00
    0.61698606126608679379E+00
    0.61668226218321997578E+00
    0.61670268114463655529E+00
    0.61627167401579696637E+00
    0.61618788067839935785E+00
    0.61552401626012576141E+00
    0.61568029612141239593E+00
    0.61516514767520824591E+00
    0.61528081979196935780E+00
    0.61594793840212791469E+00
    0.61617187400033679445E+00
    0.61670268103265268866E+00
    0.61668226221218747085E+00
    0.61698606118340171278E+00
    0.61682359589380530984E+00
    0.61637838524985166799E+00
    0.61598806367615654977E+00
    0.61618788075996755449E+00
    0.61627167402011540087E+00
    0.61407012548947159658E+00
    0.61388492881583489602E+00
    0.61278268688744241821E+00
    0.61278268703058458300E+00
    0.61388492833706476137E+00
    0.61407012458176801761E+00
    0.61501140067802362310E+00
    0.61523660887972742017E+00
    0.61595456477439036735E+00
    0.61595456451186691993E+00
    0.61523660860182038945E+00
    0.61501140068822690576E+00
    0.61462896015476331524E+00
    0.61462896014733114924E+00
    0.61389651151679169860E+00
    0.61349730224913723298E+00
    0.61244697422334615222E+00
    0.61229749776331543476E+00
    0.61308469478739791025E+00
    0.61287667860414918319E+00
    0.61355680345232865847E+00
    0.61416125369710594661E+00
    0.61488764297265741110E+00
    0.61519035096811491847E+00
    0.61469222213096408325E+00
    0.61479453386696292227E+00
    0.61400078882520958690E+00
    0.61386245615594592362E+00
    0.61045555860288669425E+00
    0.61001152986250395394E+00
    0.60860950811865510701E+00
    0.60854134169628548712E+00
    0.60963457451427527367E+00
    0.60947463072941121531E+00
    0.61031595786238368451E+00
    0.61105401579411344759E+00
    0.61200739761212608059E+00
    0.61240766032803384267E+00
    0.61168747433564674143E+00
    0.61176909398794421246E+00
    0.61076520455887117755E+00
    0.61061706133930382379E+00
    0.61061797456187383304E+00
    0.61023535998222211418E+00
    0.60842997737987658535E+00
    0.60847685663872475015E+00
    0.61023385520246453684E+00
    0.61057859238573697347E+00
    0.61202234787634057778E+00
    0.61238122450481335957E+00
    0.61356330953098192627E+00
    0.61363882728788798904E+00
    0.61247701874076954098E+00
    0.61223504293693975509E+00
    0.61142821371815292419E+00
    0.61141394297123119461E+00
    0.60515726512845480212E+00
    0.60481705843226551966E+00
    0.60225170902664648676E+00
    0.60258871769402300167E+00
    0.60520369218002578737E+00
    0.60596419481827823450E+00
    0.60795353254887929406E+00
    0.60827321831497571658E+00
    0.60992768208448033818E+00
    0.60995608068372841881E+00
    0.60816716418019334256E+00
    0.60766095123543273360E+00
    0.60669935046421197278E+00
    0.60677158779827178314E+00
    0.61287667910769350055E+00
    0.61308469498341133797E+00
    0.61229749754629747560E+00
    0.61244697435207751113E+00
    0.61349730176848493723E+00
    0.61389651056210170488E+00
    0.61479453375893111655E+00
    0.61469222216180552376E+00
    0.61519035089167195540E+00
    0.61488764314235855313E+00
    0.61416125380204311668E+00
    0.61355680342075968881E+00
    0.61386245623359392276E+00
    0.61400078882632291855E+00
    0.61057859329409169824E+00
    0.61023385567983046140E+00
    0.60847685649595306678E+00
    0.60842997752126770639E+00
    0.61023535949614815532E+00
    0.61061797364765391105E+00
    0.61223504292072827848E+00
    0.61247701901097717503E+00
    0.61363882752821674593E+00
    0.61356330926154789562E+00
    0.61238122421951612928E+00
    0.61202234788306808522E+00
    0.61141394297367990252E+00
    0.61142821370501010403E+00
    0.60947463125055623134E+00
    0.60963457472500304224E+00
    0.60854134149473593229E+00
    0.60860950826064308394E+00
    0.61001152939005065523E+00
    0.61045555765324555075E+00
    0.61176909388245503951E+00
    0.61168747437186299365E+00
    0.61240766025436688125E+00
    0.61200739778582657902E+00
    0.61105401590711083681E+00
    0.61031595784383418923E+00
    0.61061706142666227759E+00
    0.61076520456834060280E+00
    0.60596419574673632269E+00
    0.60520369267452855944E+00
    0.60258871757184273577E+00
    0.60225170918778359042E+00
    0.60481705795781459667E+00
    0.60515726422241344906E+00
    0.60766095122269159212E+00
    0.60816716445610052855E+00
    0.60995608092702324754E+00
    0.60992768182043111125E+00
    0.60827321803897071995E+00
    0.60795353256960882327E+00
    0.60677158781223494710E+00
    0.60669935046124745526E+00
    0.60491323847342948206E+00
    0.60418498654497543310E+00
    0.60113118853362446092E+00
    0.60113118867397374867E+00
    0.60418498605808934609E+00
    0.60491323755626402736E+00
    0.60752836058901005245E+00
    0.60793653796218616314E+00
    0.60993181461752143946E+00
    0.60993181436886001467E+00
    0.60793653768417199590E+00
    0.60752836060333026413E+00
    0.60618455280911864858E+00
    0.60618455280068161972E+00
    0.59536187507149818110E+00
    0.59460182122916815928E+00
    0.58993449892953953029E+00
    0.59044343937648491316E+00
    0.59531839653024987147E+00
    0.59694097091620168527E+00
    0.60078781217702670325E+00
    0.60104742187859672153E+00
    0.60401792994364233991E+00
    0.60386676342706924192E+00
    0.60060059020247480444E+00
    0.59969601551353124425E+00
    0.59798370612486473341E+00
    0.59815428692985928016E+00
    0.59694097186373773489E+00
    0.59531839704452249595E+00
    0.59044343926565090452E+00
    0.58993449909715167667E+00
    0.59460182075830525505E+00
    0.59536187416469588118E+00
    0.59969601550451634431E+00
    0.60060059049115088747E+00
    0.60386676368157765626E+00
    0.60401792970418799467E+00
    0.60104742161520152699E+00
    0.60078781221253929612E+00
    0.59815428695646011281E+00
    0.59798370613234508308E+00
    0.58047730548612153090E+00
    0.57824152833286746045E+00
    0.57001301483474919873E+00
    0.57001301497200174140E+00
    0.57824152782983317955E+00
    0.58047730454025314728E+00
    0.58739633676134805906E+00
    0.58823043514569350876E+00
    0.59348674773682130734E+00
    0.59348674749297236630E+00
    0.58823043487343551483E+00
    0.58739633679818803458E+00
    0.58350866651338451074E+00
    0.58350866650173649486E+00
    0.60619525550466291097E+00
    0.60589408410862022336E+00
    0.60425780519690308612E+00
    0.60440748355008999670E+00
    0.60578658966064813374E+00
    0.60579403218647642770E+00
    0.60669392190863757897E+00
    0.60743442709649198008E+00
    0.60850173643088290021E+00
    0.60892711661122844724E+00
    0.60798667762727187647E+00
    0.60791470297079241991E+00
    0.60694285599828323718E+00
    0.60684612403985438434E+00
    0.60176559654330974425E+00
    0.60181335908984534555E+00
    0.60014582259786497520E+00
    0.60062526764382007105E+00
    0.60219846966577572633E+00
    0.60247466411956152044E+00
    0.60329892014058172922E+00
    0.60388425787615296336E+00
    0.60490213339229625955E+00
    0.60525678361003376615E+00
    0.60414571136810280017E+00
    0.60378358845563429025E+00
    0.60314485585571508963E+00
    0.60316298775729182413E+00
    0.59806856213009429446E+00
    0.59814854551237883751E+00
    0.59495133000478006569E+00
    0.59587414858782561389E+00
    0.59941659269077240957E+00
    0.60085476595378017883E+00
    0.60331872600136071672E+00
    0.60336493825738624075E+00
    0.60540152545091241443E+00
    0.60521870992169890524E+00
    0.60266673523021496717E+00
    0.60157926938451422583E+00
    0.60091250322968314812E+00
    0.60120078360343653934E+00
    0.59045240171994128886E+00
    0.59137349215124779267E+00
    0.58791517807419590991E+00
    0.58963555929635291797E+00
    0.59393627398927140160E+00
    0.59619807014542081092E+00
    0.59892969978822607757E+00
    0.59847371036421559420E+00
    0.60067639024818431093E+00
    0.60011260667854926520E+00
    0.59680881596235979547E+00
    0.59484334314940368049E+00
    0.59503306400839273138E+00
    0.59565290032189677216E+00
    0.59800322904245772904E+00
    0.59854780415019570583E+00
    0.59707977819626467664E+00
    0.59793254898377945494E+00
    0.59955650447484143406E+00
    0.60015033307508791616E+00
    0.60077028520421271729E+00
    0.60106157203535082179E+00
    0.60185777900976378252E+00
    0.60204845408266038920E+00
    0.60086364938273262304E+00
    0.60012263089893780332E+00
    0.60008196379036338186E+00
    0.60025887829204593871E+00
    0.59565385588008101792E+00
    0.59673533815924284518E+00
    0.59565306950178509293E+00
    0.59684513418217832736E+00
    0.59836793661422138513E+00
    0.59926450216699889140E+00
    0.59959298996133436610E+00
    0.59950998170267255638E+00
    0.59995410602010457168E+00
    0.59991813612949640433E+00
    0.59877713296597367965E+00
    0.59764834848034176229E+00
    0.59834831859477088933E+00
    0.59869513106502070254E+00
    0.58393949035953540694E+00
    0.58593757853842920458E+00
    0.58268542416633917203E+00
    0.58520956570177096179E+00
    0.58990293702535878673E+00
    0.59294021241328542793E+00
    0.59565802474508222630E+00
    0.59457215709880195664E+00
    0.59665673886979508911E+00
    0.59560999086743271480E+00
    0.59176212568550257132E+00
    0.58880416381866307329E+00
    0.59027192785959470278E+00
    0.59126529776132541460E+00
    0.57991582689177645360E+00
    0.58294757855686318848E+00
    0.58027800054617573178E+00
    0.58343658665846864775E+00
    0.58809878248772262666E+00
    0.59170301152173532255E+00
    0.59413852722331816913E+00
    0.59243440288251103532E+00
    0.59414660692953680243E+00
    0.59262459734723316185E+00
    0.58856771692254261641E+00
    0.58474512781432885777E+00
    0.58759254752502909636E+00
    0.58891470216894459266E+00
    0.58199108026667545346E+00
    0.58198180159903745157E+00
    0.57577759867021272022E+00
    0.57751788298565198687E+00
    0.58454576943580216497E+00
    0.58770594951355092928E+00
    0.59276111732445069258E+00
    0.59238013810509126955E+00
    0.59626947236713456757E+00
    0.59561771818768971531E+00
    0.59063952976767064573E+00
    0.58853767854017646766E+00
    0.58731681393850987405E+00
    0.58794793285187607612E+00
    0.56685420918552487102E+00
    0.56867747350552799723E+00
    0.56178758642612613983E+00
    0.56530464297683691299E+00
    0.57412788724565899656E+00
    0.57916311817121191030E+00
    0.58500306977742588810E+00
    0.58348740078302319123E+00
    0.58789006229123930147E+00
    0.58634759920417700574E+00
    0.57955971185544885582E+00
    0.57549420246321991712E+00
    0.57609248162018400485E+00
    0.57746744672159266987E+00
    0.55452810416119735493E+00
    0.55305338572111339968E+00
    0.54083192044072503357E+00
    0.54323081663519579010E+00
    0.55640888087604511991E+00
    0.56188105882932204427E+00
    0.57163755478963795831E+00
    0.57130304425823896786E+00
    0.57874624306599253831E+00
    0.57788458373239248722E+00
    0.56905840348918312888E+00
    0.56622202882017491632E+00
    0.56245385895709876234E+00
    0.56327491323394862643E+00
    0.52195490886754336568E+00
    0.52470410452885329899E+00
    0.51086174875348300262E+00
    0.51750233800208023105E+00
    0.53474004968511090752E+00
    0.54446500885046933416E+00
    0.55601064854013160232E+00
    0.55315129728193923597E+00
    0.56187742832512554969E+00
    0.55908785554100859372E+00
    0.54606314104393971487E+00
    0.53889051321632597258E+00
    0.53896642263090333014E+00
    0.54147706498275960385E+00
    0.55395965810722846978E+00
    0.55812233871613003977E+00
    0.55164519729253580493E+00
    0.55684538172312303406E+00
    0.56657307381178811934E+00
    0.57326112716767096966E+00
    0.57925143509668464148E+00
    0.57640932392259014438E+00
    0.58071652391698869167E+00
    0.57809092412528539917E+00
    0.56997323325229998225E+00
    0.56369574454598747604E+00
    0.56705186303530041858E+00
    0.56923449459662978089E+00
    0.54629021699548518942E+00
    0.55249938117679475713E+00
    0.54713260725950341179E+00
    0.55354975992035249099E+00
    0.56326891122513300658E+00
    0.57105685227506419732E+00
    0.57661661948993170324E+00
    0.57259569437098034594E+00
    0.57629486058018919437E+00
    0.57269609554570488630E+00
    0.56404010556036043855E+00
    0.55597809088271998856E+00
    0.56208858366997982436E+00
    0.56492193008722391134E+00
    0.49527935972913422757E+00
    0.50338569526387511033E+00
    0.49093454893511023762E+00
    0.50102573249201753924E+00
    0.51987144592048450953E+00
    0.53297880533644415024E+00
    0.54477431383227792328E+00
    0.53907129028226885570E+00
    0.54752632400787248912E+00
    0.54233036242675791705E+00
    0.52643905035810123483E+00
    0.51427222822658280599E+00
    0.52072874882456821055E+00
    0.52499786821481764232E+00
    0.48092668723503984030E+00
    0.49290794305963003819E+00
    0.48270998397043102246E+00
    0.49499161349040371460E+00
    0.51371509535197468210E+00
    0.52886406941077679367E+00
    0.53982353109712788441E+00
    0.53184376229196816954E+00
    0.53906139307166323071E+00
    0.53191240756114366306E+00
    0.51507413141566915638E+00
    0.49942305593053393231E+00
    0.51135942363788444709E+00
    0.51686872227835889415E+00
    0.60579403273271348329E+00
    0.60578658989802236512E+00
    0.60440748337837169046E+00
    0.60425780536624662531E+00
    0.60589408365932417855E+00
    0.60619525457721035178E+00
    0.60791470288360072161E+00
    0.60798667768481418072E+00
    0.60892711655833120510E+00
    0.60850173662532780483E+00
    0.60743442723101859215E+00
    0.60669392191329751807E+00
    0.60684612415045424694E+00
    0.60694285603045183830E+00
    0.60085476691262129645E+00
    0.59941659321814655392E+00
    0.59587414850566333691E+00
    0.59495133020481627550E+00
    0.59814854506926917743E+00
    0.59806856125525509338E+00
    0.60157926939592276661E+00
    0.60266673553165717170E+00
    0.60521871018904471740E+00
    0.60540152521069967584E+00
    0.60336493800698920431E+00
    0.60331872604969860596E+00
    0.60120078364612805633E+00
    0.60091250325521261555E+00
    0.60247466469345289930E+00
    0.60219846993153580694E+00
    0.60062526750107814166E+00
    0.60014582279605088733E+00
    0.60181335866797214251E+00
    0.60176559564517040357E+00
    0.60378358839761847587E+00
    0.60414571145348949788E+00
    0.60525678358268863999E+00
    0.60490213361195377395E+00
    0.60388425803597567398E+00
    0.60329892017153419204E+00
    0.60316298789479161346E+00
    0.60314485591501665329E+00
    0.59619807113605582938E+00
    0.59393627455018827010E+00
    0.58963555925090860299E+00
    0.58791517831307482655E+00
    0.59137349174395670293E+00
    0.59045240088522543687E+00
    0.59484334319947851366E+00
    0.59680881629786974862E+00
    0.60011260697683888043E+00
    0.60067639003830819444E+00
    0.59847371014358896613E+00
    0.59892969986618227463E+00
    0.59565290039714491321E+00
    0.59503306406744393975E+00
    0.58770595050574814255E+00
    0.58454577000045859769E+00
    0.57751788293286732134E+00
    0.57577759889280422101E+00
    0.58198180117220021934E+00
    0.58199107940293715036E+00
    0.58853767856593386387E+00
    0.59063953009587555343E+00
    0.59561771847801980861E+00
    0.59626947216228765036E+00
    0.59238013787887722206E+00
    0.59276111739975700932E+00
    0.58794793292123292971E+00
    0.58731681398815804851E+00
    0.56188105983432656831E+00
    0.55640888144468880760E+00
    0.54323081656956995200E+00
    0.54083192064111307307E+00
    0.55305338526622771500E+00
    0.55452810325920565138E+00
    0.56622202882076100305E+00
    0.56905840381061989497E+00
    0.57788458402322662177E+00
    0.57874624286893305847E+00
    0.57130304403394316370E+00
    0.57163755488083045631E+00
    0.56327491329926548946E+00
    0.56245385899675692798E+00
    0.57916311920673191338E+00
    0.57412788785819135473E+00
    0.56530464297275750951E+00
    0.56178758669961148531E+00
    0.56867747312654892688E+00
    0.56685420837631139701E+00
    0.57549420254449967782E+00
    0.57955971223471014486E+00
    0.58634759953956216982E+00
    0.58789006212910155380E+00
    0.58348740059789683254E+00
    0.58500306989296335658E+00
    0.57746744683683426391E+00
    0.57609248171717852838E+00
    0.54446500990723878388E+00
    0.53474005031128135634E+00
    0.51750233799233202880E+00
    0.51086174902465864012E+00
    0.52470410412694201696E+00
    0.52195490802365163141E+00
    0.53889051328341786018E+00
    0.54606314143004308637E+00
    0.55908785589109610825E+00
    0.56187742818505104214E+00
    0.55315129710803023766E+00
    0.55601064868209593151E+00
    0.54147706510287940684E+00
    0.53896642272670314266E+00
    0.60015033368250914059E+00
    0.59955650477390587394E+00
    0.59793254887567381939E+00
    0.59707977842814641267E+00
    0.59854780375934191206E+00
    0.59800322817553541732E+00
    0.60012263087051875843E+00
    0.60086364949810022740E+00
    0.60204845408354623615E+00
    0.60185777925786254627E+00
    0.60106157222466849444E+00
    0.60077028526655840146E+00
    0.60025887846039438500E+00
    0.60008196388024981349E+00
    0.59294021344170566579E+00
    0.58990293762427303825E+00
    0.58520956569771365174E+00
    0.58268542444686410864E+00
    0.58593757816876024247E+00
    0.58393948956438890274E+00
    0.58880416390559997541E+00
    0.59176212605577926951E+00
    0.59560999119810331681E+00
    0.59665673869219926218E+00
    0.59457215691132259128E+00
    0.59565802485747820771E+00
    0.59126529787209602951E+00
    0.59027192795435057260E+00
    0.59926450281861209923E+00
    0.59836793695695655870E+00
    0.59684513412099371443E+00
    0.59565306977965670754E+00
    0.59673533780946297345E+00
    0.59565385505256729370E+00
    0.59764834848808801038E+00
    0.59877713311847324817E+00
    0.59991813616523170793E+00
    0.59995410630408452235E+00
    0.59950998193048921081E+00
    0.59959299006487332129E+00
    0.59869513127345030945E+00
    0.59834831872415716880E+00
    0.59170301260527979892E+00
    0.58809878314028607438E+00
    0.58343658671376774638E+00
    0.58027800088298053804E+00
    0.58294757823648712947E+00
    0.57991582614387215955E+00
    0.58474512794422861539E+00
    0.58856771733577317729E+00
    0.59262459771743047909E+00
    0.59414660679250885789E+00
    0.59243440273970082721E+00
    0.59413852738347949778E+00
    0.58891470232743980961E+00
    0.58759254766662050162E+00
    0.57326112824958908032E+00
    0.56657307447207894135E+00
    0.55684538176751652294E+00
    0.55164519761385477636E+00
    0.55812233838167091271E+00
    0.55395965734582730544E+00
    0.56369574467521010863E+00
    0.56997323367860497356E+00
    0.57809092450402321806E+00
    0.58071652379668048383E+00
    0.57640932377893117078E+00
    0.57925143525481748163E+00
    0.56923449475657084129E+00
    0.56705186317733768941E+00
    0.53297880644086337298E+00
    0.51987144659305661865E+00
    0.50102573252188720154E+00
    0.49093454924294466224E+00
    0.50338569489926887623E+00
    0.49527935893569496884E+00
    0.51427222834488661718E+00
    0.52643905079574160322E+00
    0.54233036282747892898E+00
    0.54752632391715483351E+00
    0.53907129015200383471E+00
    0.54477431402096709867E+00