# vtk DataFile Version 3.0
LAPLACIEN  2D
ASCII
DATASET UNSTRUCTURED_GRID
 POINTS        1857  float
   3.1250000000000000E-002  0.93750000000000000        0.0000000000000000     
   6.2500000000000000E-002  0.93750000000000000        0.0000000000000000     
   6.2500000000000000E-002  0.96875000000000000        0.0000000000000000     
   1.8749999999999999E-002  0.95625000000000004        0.0000000000000000     
   4.0625000000000001E-002  0.95937499999999998        0.0000000000000000     
   4.3749999999999997E-002  0.98124999999999996        0.0000000000000000     
   2.1874999999999999E-002  0.97812500000000002        0.0000000000000000     
   9.3750000000000000E-002  0.93750000000000000        0.0000000000000000     
  0.12500000000000000       0.93750000000000000        0.0000000000000000     
  0.12500000000000000       0.96875000000000000        0.0000000000000000     
   8.1250000000000003E-002  0.95625000000000004        0.0000000000000000     
  0.10312499999999999       0.95937499999999998        0.0000000000000000     
  0.10625000000000000       0.98124999999999996        0.0000000000000000     
   8.4375000000000006E-002  0.97812500000000002        0.0000000000000000     
   3.1250000000000000E-002  0.87500000000000000        0.0000000000000000     
   6.2500000000000000E-002  0.87500000000000000        0.0000000000000000     
   6.2500000000000000E-002  0.90625000000000000        0.0000000000000000     
   1.8749999999999999E-002  0.89375000000000004        0.0000000000000000     
   4.0625000000000001E-002  0.89687499999999998        0.0000000000000000     
   4.3749999999999997E-002  0.91874999999999996        0.0000000000000000     
   2.1874999999999999E-002  0.91562500000000002        0.0000000000000000     
   9.3750000000000000E-002  0.87500000000000000        0.0000000000000000     
  0.12500000000000000       0.87500000000000000        0.0000000000000000     
  0.12500000000000000       0.90625000000000000        0.0000000000000000     
   8.1250000000000003E-002  0.89375000000000004        0.0000000000000000     
  0.10312499999999999       0.89687499999999998        0.0000000000000000     
  0.10625000000000000       0.91874999999999996        0.0000000000000000     
   8.4375000000000006E-002  0.91562500000000002        0.0000000000000000     
  0.15625000000000000       0.93750000000000000        0.0000000000000000     
  0.18750000000000000       0.93750000000000000        0.0000000000000000     
  0.18750000000000000       0.96875000000000000        0.0000000000000000     
  0.14374999999999999       0.95625000000000004        0.0000000000000000     
  0.16562499999999999       0.95937499999999998        0.0000000000000000     
  0.16875000000000001       0.98124999999999996        0.0000000000000000     
  0.14687500000000001       0.97812500000000002        0.0000000000000000     
  0.21875000000000000       0.93750000000000000        0.0000000000000000     
  0.25000000000000000       0.93750000000000000        0.0000000000000000     
  0.25000000000000000       0.96875000000000000        0.0000000000000000     
  0.20624999999999999       0.95625000000000004        0.0000000000000000     
  0.22812499999999999       0.95937499999999998        0.0000000000000000     
  0.23125000000000001       0.98124999999999996        0.0000000000000000     
  0.20937500000000001       0.97812500000000002        0.0000000000000000     
  0.15625000000000000       0.87500000000000000        0.0000000000000000     
  0.18750000000000000       0.87500000000000000        0.0000000000000000     
  0.18750000000000000       0.90625000000000000        0.0000000000000000     
  0.14374999999999999       0.89375000000000004        0.0000000000000000     
  0.16562499999999999       0.89687499999999998        0.0000000000000000     
  0.16875000000000001       0.91874999999999996        0.0000000000000000     
  0.14687500000000001       0.91562500000000002        0.0000000000000000     
  0.21875000000000000       0.87500000000000000        0.0000000000000000     
  0.25000000000000000       0.87500000000000000        0.0000000000000000     
  0.25000000000000000       0.90625000000000000        0.0000000000000000     
  0.20624999999999999       0.89375000000000004        0.0000000000000000     
  0.22812499999999999       0.89687499999999998        0.0000000000000000     
  0.23125000000000001       0.91874999999999996        0.0000000000000000     
  0.20937500000000001       0.91562500000000002        0.0000000000000000     
   3.1250000000000000E-002  0.81250000000000000        0.0000000000000000     
   6.2500000000000000E-002  0.81250000000000000        0.0000000000000000     
   6.2500000000000000E-002  0.84375000000000000        0.0000000000000000     
   1.8749999999999999E-002  0.83125000000000004        0.0000000000000000     
   4.0625000000000001E-002  0.83437499999999998        0.0000000000000000     
   4.3749999999999997E-002  0.85624999999999996        0.0000000000000000     
   2.1874999999999999E-002  0.85312500000000002        0.0000000000000000     
   9.3750000000000000E-002  0.81250000000000000        0.0000000000000000     
  0.12500000000000000       0.81250000000000000        0.0000000000000000     
  0.12500000000000000       0.84375000000000000        0.0000000000000000     
   8.1250000000000003E-002  0.83125000000000004        0.0000000000000000     
  0.10312499999999999       0.83437499999999998        0.0000000000000000     
  0.10625000000000000       0.85624999999999996        0.0000000000000000     
   8.4375000000000006E-002  0.85312500000000002        0.0000000000000000     
   3.1250000000000000E-002  0.75000000000000000        0.0000000000000000     
   6.2500000000000000E-002  0.75000000000000000        0.0000000000000000     
   6.2500000000000000E-002  0.78125000000000000        0.0000000000000000     
   1.8749999999999999E-002  0.76875000000000004        0.0000000000000000     
   4.0625000000000001E-002  0.77187499999999998        0.0000000000000000     
   4.3749999999999997E-002  0.79374999999999996        0.0000000000000000     
   2.1874999999999999E-002  0.79062500000000002        0.0000000000000000     
   9.3750000000000000E-002  0.75000000000000000        0.0000000000000000     
  0.12500000000000000       0.75000000000000000        0.0000000000000000     
  0.12500000000000000       0.78125000000000000        0.0000000000000000     
   8.1250000000000003E-002  0.76875000000000004        0.0000000000000000     
  0.10312499999999999       0.77187499999999998        0.0000000000000000     
  0.10625000000000000       0.79374999999999996        0.0000000000000000     
   8.4375000000000006E-002  0.79062500000000002        0.0000000000000000     
  0.15625000000000000       0.81250000000000000        0.0000000000000000     
  0.18750000000000000       0.81250000000000000        0.0000000000000000     
  0.18750000000000000       0.84375000000000000        0.0000000000000000     
  0.14374999999999999       0.83125000000000004        0.0000000000000000     
  0.16562499999999999       0.83437499999999998        0.0000000000000000     
  0.16875000000000001       0.85624999999999996        0.0000000000000000     
  0.14687500000000001       0.85312500000000002        0.0000000000000000     
  0.21875000000000000       0.81250000000000000        0.0000000000000000     
  0.25000000000000000       0.81250000000000000        0.0000000000000000     
  0.25000000000000000       0.84375000000000000        0.0000000000000000     
  0.20624999999999999       0.83125000000000004        0.0000000000000000     
  0.22812499999999999       0.83437499999999998        0.0000000000000000     
  0.23125000000000001       0.85624999999999996        0.0000000000000000     
  0.20937500000000001       0.85312500000000002        0.0000000000000000     
  0.15625000000000000       0.75000000000000000        0.0000000000000000     
  0.18750000000000000       0.75000000000000000        0.0000000000000000     
  0.18750000000000000       0.78125000000000000        0.0000000000000000     
  0.14374999999999999       0.76875000000000004        0.0000000000000000     
  0.16562499999999999       0.77187499999999998        0.0000000000000000     
  0.16875000000000001       0.79374999999999996        0.0000000000000000     
  0.14687500000000001       0.79062500000000002        0.0000000000000000     
  0.21875000000000000       0.75000000000000000        0.0000000000000000     
  0.25000000000000000       0.75000000000000000        0.0000000000000000     
  0.25000000000000000       0.78125000000000000        0.0000000000000000     
  0.20624999999999999       0.76875000000000004        0.0000000000000000     
  0.22812499999999999       0.77187499999999998        0.0000000000000000     
  0.23125000000000001       0.79374999999999996        0.0000000000000000     
  0.20937500000000001       0.79062500000000002        0.0000000000000000     
  0.28125000000000000       0.93750000000000000        0.0000000000000000     
  0.31250000000000000       0.93750000000000000        0.0000000000000000     
  0.31250000000000000       0.96875000000000000        0.0000000000000000     
  0.26874999999999999       0.95625000000000004        0.0000000000000000     
  0.29062500000000002       0.95937499999999998        0.0000000000000000     
  0.29375000000000001       0.98124999999999996        0.0000000000000000     
  0.27187499999999998       0.97812500000000002        0.0000000000000000     
  0.34375000000000000       0.93750000000000000        0.0000000000000000     
  0.37500000000000000       0.93750000000000000        0.0000000000000000     
  0.37500000000000000       0.96875000000000000        0.0000000000000000     
  0.33124999999999999       0.95625000000000004        0.0000000000000000     
  0.35312500000000002       0.95937499999999998        0.0000000000000000     
  0.35625000000000001       0.98124999999999996        0.0000000000000000     
[...]
 CELL_DATA        3584
 SCALARS Tumor_cells float
 LOOKUP_TABLE default
   -0.42590531849408929002E-06
    0.41705357518193340304E-06
   -0.39186524113788311625E-06
   -0.39186520500355314229E-06
    0.41705353447509691601E-06
   -0.42590528833101035137E-06
    0.76448405589861441420E-06
    0.42043494948274770694E-06
    0.81459611357404321182E-06
    0.81459610153100944765E-06
    0.42043492485628215797E-06
    0.76448402944996034360E-06
    0.43197003110929503035E-05
    0.43197004247270534479E-05
   -0.42532270286300550767E-06
    0.41581700800673917904E-06
   -0.39190035800939537911E-06
   -0.39188993096376208932E-06
    0.41585336566951452053E-06
   -0.42595792102539448414E-06
    0.76352131844653291351E-06
    0.42203436592716330262E-06
    0.81430557532668968192E-06
   -0.38999305436952582684E-06
    0.42519732750680131972E-06
   -0.42585006550875180017E-06
    0.43183712264743516219E-05
    0.43157227875801606060E-05
   -0.42595796044065660435E-06
    0.41585336150758605282E-06
   -0.39188991714640150609E-06
   -0.39190030552137048754E-06
    0.41581706432757095158E-06
   -0.42532263587322768175E-06
   -0.42585007457370051927E-06
    0.42519725277091444388E-06
   -0.38999306035628217084E-06
    0.81430559475494378563E-06
    0.42203436651598132640E-06
    0.76352130103840103763E-06
    0.43157224010665813188E-05
    0.43183710318856098685E-05
   -0.42549865534395851680E-06
    0.41423061201413366522E-06
   -0.39193492679284890300E-06
   -0.39193493402661789868E-06
    0.41423062681680696547E-06
   -0.42549859221516999913E-06
   -0.42595014791907159369E-06
    0.42773094542366276488E-06
   -0.38998780240732229647E-06
   -0.38998783799893067962E-06
    0.42773109976356684558E-06
   -0.42595011326316324908E-06
    0.43126197984243499960E-05
    0.43126198950836985781E-05
   -0.42490680911027641357E-06
    0.41443624849864701799E-06
   -0.39196058924717092713E-06
   -0.39195073424304988534E-06
    0.41471526781533002002E-06
   -0.42603270002875873824E-06
    0.76268106693787008387E-06
    0.42417217609935555977E-06
    0.81409463590485436543E-06
   -0.38859522577384868069E-06
    0.42994391282777941207E-06
   -0.42566895493557022090E-06
    0.43162382171256822192E-05
    0.43122895267727774909E-05
   -0.42488521428143214088E-06
    0.41320608940031357399E-06
   -0.39203930174340668583E-06
   -0.39204502313051027243E-06
    0.41382311446162533541E-06
   -0.42612268173068353982E-06
    0.76211791440387552782E-06
    0.42672680436070179126E-06
    0.81399081677717834568E-06
   -0.38743417328152539509E-06
    0.43386226382024664067E-06
   -0.42580197595805718740E-06
    0.43132870812314143760E-05
    0.43100103818929172428E-05
   -0.42505931098130001183E-06
    0.41168451157795461097E-06
   -0.39201240535228562508E-06
   -0.39202215168525770765E-06
    0.41186596231488996224E-06
   -0.42516209343800385935E-06
   -0.42602484513749631567E-06
    0.43330973671761912641E-06
   -0.38879991007095248757E-06
   -0.38884854603218715694E-06
    0.43507510019700854965E-06
   -0.42601861712550631276E-06
    0.43067840495452580304E-05
    0.43069719136256825757E-05
   -0.42532855763191015415E-06
    0.40898131424965422825E-06
   -0.39211545474568097520E-06
   -0.39216418453537577305E-06
    0.40878611927404109886E-06
   -0.42414766490390670262E-06
   -0.42612241405146612087E-06
    0.44240769515284508904E-06
   -0.38760728228922162508E-06
   -0.38724801831881826497E-06
    0.44117952006926520914E-06
   -0.42613531773242148396E-06
    0.42978059332124146736E-05
    0.43023223478319626872E-05
   -0.42603274777677476325E-06
    0.41471520840912303298E-06
   -0.39195075636694393909E-06
   -0.39196050266927126959E-06
    0.41443624150264694687E-06
   -0.42490676290356982027E-06
   -0.42566894352879796055E-06
    0.42994384073363302699E-06
   -0.38859524795556533271E-06
    0.81409459971464282214E-06
    0.42417217281348298798E-06
    0.76268108840351868775E-06
    0.43122893976580604921E-05
    0.43162383021605666266E-05
   -0.42516217385354914317E-06
    0.41186592112877518154E-06
   -0.39202216673915367440E-06
   -0.39201236423235127556E-06
    0.41168452561214652310E-06
   -0.42505923693424568675E-06
   -0.42601864426479849072E-06
    0.43507494680958460075E-06
   -0.38884853316253012789E-06
   -0.38879992115335888060E-06
    0.43330982157880068733E-06
   -0.42602483909135443880E-06
    0.43069721052833625298E-05
    0.43067844541924955821E-05
   -0.42612269341208828680E-06
    0.41382314175421454202E-06
   -0.39204504846154772662E-06
   -0.39203927424772100133E-06
    0.41320607086193036769E-06
   -0.42488515371585420712E-06
   -0.42580200459560554172E-06
    0.43386219698867667573E-06
   -0.38743414734838748759E-06
    0.81399081695734998274E-06
    0.42672676511608292860E-06
    0.76211789282937397874E-06
    0.43100102668526572437E-05
    0.43132871457139929951E-05
   -0.42414773438890981288E-06
    0.40878602012948535581E-06
   -0.39216418825574570066E-06
   -0.39211542243246300418E-06
    0.40898131904406743869E-06
   -0.42532849232956801941E-06
   -0.42613533895991661032E-06
    0.44117940993949846262E-06
   -0.38724798341042872172E-06
   -0.38760729797246741269E-06
    0.44240776053127968744E-06
   -0.42612243095538633536E-06
    0.43023225604884203431E-05
    0.42978063078538980099E-05
   -0.42427244566268104567E-06
    0.40717647817342963147E-06
   -0.39215124646040401179E-06
   -0.39215121259995992512E-06
    0.40717642273735527137E-06
   -0.42427240965421286201E-06
   -0.42613145032169240350E-06
    0.44621936865940960907E-06
   -0.38667408410760764702E-06
   -0.38667411526748295187E-06
    0.44621944400288248240E-06
   -0.42613145261914486497E-06
    0.42962103950804530534E-05
    0.42962105057272708926E-05
   -0.42442183468376011417E-06
    0.40142517585217410222E-06
   -0.39233358547335790514E-06
   -0.39239846196354176895E-06
    0.40064145441648504119E-06
   -0.42205230953971119158E-06
   -0.42627673076223592241E-06
    0.46566252332724228102E-06
   -0.38410248934729582442E-06
   -0.38334271248543657499E-06
    0.45879010274648388313E-06
   -0.42632683806551217297E-06
    0.42779639825940220406E-05
    0.42857579183215486704E-05
   -0.42205230939158206976E-06
    0.40064144895970720671E-06
   -0.39239849923167140023E-06
   -0.39233355701334898005E-06
    0.40142519672423498685E-06
   -0.42442179545770090806E-06
   -0.42632685441069811523E-06
    0.45879004814231027962E-06
   -0.38334267303224410765E-06
   -0.38410248475427030878E-06
    0.46566262870292665561E-06
   -0.42627672955195935436E-06
    0.42857578270497667018E-05
    0.42779640831002503737E-05
   -0.42076170526328452941E-06
    0.38871241119583793711E-06
   -0.39277595808068259070E-06
   -0.39277591150683607798E-06
    0.38871244329752266444E-06
   -0.42076163266669921702E-06
   -0.42657236751160641545E-06
    0.49352323824081690109E-06
   -0.37790253243088030232E-06
   -0.37790251756605770656E-06
    0.49352334095614411247E-06
   -0.42657234344221098366E-06
    0.42536738745009813650E-05
    0.42536739635501133046E-05
   -0.42540217079148613572E-06
    0.41243470986720067284E-06
   -0.39212558192172067524E-06
   -0.39216214286431048734E-06
    0.41340278120172112047E-06
   -0.42619489330554913102E-06
    0.76201908572107306630E-06
    0.42934442389822868617E-06
    0.81403901349790134059E-06
   -0.38677544341162784978E-06
    0.43571140878072779122E-06
   -0.42613007647001310573E-06
    0.43098101022171989642E-05
    0.43096821713693218457E-05
   -0.42635411538521343296E-06
    0.41225585366002618304E-06
   -0.39219854895184412100E-06
   -0.39228458963849659862E-06
    0.41276609992045958004E-06
   -0.42553758339279618141E-06
    0.76249791817721429758E-06
    0.43145941259755364470E-06
    0.81426516025873554824E-06
   -0.38688776717689673477E-06
    0.43406671269617850275E-06
   -0.42623955651916228381E-06
    0.43065087112630326584E-05
    0.43118168849257881641E-05
   -0.42644198634814949706E-06
    0.40652111393488532917E-06
   -0.39221934668482546045E-06
   -0.39235137830899080182E-06
    0.40547798632086677595E-06
   -0.42243321121213019607E-06
   -0.42622719264455681904E-06
    0.45446355492509082751E-06
   -0.38665902394551984932E-06
   -0.38531459125513577833E-06
    0.44394567281022441420E-06
   -0.42629925121958003864E-06
    0.42862916398948756961E-05
    0.43003167362357249030E-05
   -0.42663757079258496833E-06
    0.40283993925309510211E-06
   -0.39228011847664912393E-06
   -0.39255235692363905815E-06
    0.40280174450014358094E-06
   -0.42031710433225632106E-06
   -0.42502649761005995567E-06
    0.46560698972414565345E-06
   -0.38628999981318354838E-06
   -0.38345045962293447921E-06
    0.44130480028573212134E-06
   -0.42647527140530027832E-06
    0.42746144962959488418E-05
    0.43023425981214162683E-05
   -0.42646741845302650332E-06
    0.41136853815187009658E-06
   -0.39224572819672075164E-06
   -0.39238909889286176291E-06
    0.41264262354741643651E-06
   -0.42471371010856183796E-06
    0.76350050363858618488E-06
    0.43253612739595059388E-06
    0.81464618521388157358E-06
   -0.38786494743895648692E-06
    0.42918474520981820329E-06
   -0.42633344494508080200E-06
    0.43042104443445759635E-05
    0.43161948414171303647E-05
   -0.42654587135595751811E-06
    0.41100648728393173140E-06
   -0.39226055540772073341E-06
   -0.39245488789124519819E-06
    0.41305569395010675979E-06
   -0.42388450165059237814E-06
    0.76475026496093576424E-06
    0.43242750824158885922E-06
    0.81489533302464774143E-06
   -0.38931069823709630180E-06
    0.42201596942607234778E-06
   -0.42639704421902422171E-06
    0.43034360569717057022E-05
    0.43219454528623974811E-05
   -0.42682083112094577312E-06
    0.40006239787763964578E-06
   -0.39229079742120270403E-06
   -0.39272255322618684284E-06
    0.40144895047772572296E-06
   -0.41829624482363552884E-06
   -0.42329753687258527833E-06
    0.47376126736158334892E-06
   -0.38668226487958429041E-06
   -0.38217426291051371465E-06
    0.43324162258306199933E-06
   -0.42663342472329062753E-06
    0.42659052368139334783E-05
    0.43082133562827915386E-05
   -0.42696599549569495179E-06
    0.39876580479844770897E-06
   -0.39226321956502489181E-06
   -0.39282728461863204714E-06
    0.40160890230727570210E-06
   -0.41677463182973813218E-06
   -0.42156158334117041464E-06
    0.47739255987581140155E-06
   -0.38775298574835502821E-06
   -0.38178635169134339892E-06
    0.42185855907170256407E-06
   -0.42673947648382630478E-06
    0.42620069348708921461E-05
    0.43164525698105058002E-05
   -0.42669710390547001724E-06
    0.39606546271933614110E-06
   -0.39252991107278038266E-06
   -0.39275808555024786845E-06
    0.39298541860323751799E-06
   -0.41816499972739590511E-06
   -0.42532215518266237209E-06
    0.49196444833988256572E-06
   -0.38162015950398639663E-06
   -0.37886896523307340546E-06
    0.46612266411419944009E-06
   -0.42664647219011256050E-06
    0.42521060649687027642E-05
    0.42795438012471517488E-05
   -0.42694406581057517904E-06
    0.38770314598925585140E-06
   -0.39253149507788288467E-06
   -0.39316077378694946549E-06
    0.38668628588683719661E-06
   -0.41342530751789853571E-06
   -0.42210838045127290849E-06
    0.51804987034541560381E-06
   -0.38019408640738702467E-06
   -0.37428094974345155313E-06
    0.46154167959448180698E-06
   -0.42700266343270050499E-06
    0.42246293781159806397E-05
    0.42821742427589455489E-05
   -0.42293667371800315010E-06
    0.37468615437444568480E-06
   -0.39325556382424465149E-06
   -0.39354872453524277012E-06
    0.37121018664656453444E-06
   -0.41264927554194030521E-06
   -0.42573488608112757523E-06
    0.55026860729650207597E-06
   -0.37147134673475877243E-06
   -0.36810046106161868101E-06
    0.51643345714926305370E-06
   -0.42715503078943877528E-06
    0.41983737703164030600E-05
    0.42342964272682944175E-05
   -0.42629594398122228852E-06
    0.36021132124920391737E-06
   -0.39283737127447674662E-06
   -0.39446188265561154552E-06
    0.35713052182133736207E-06
   -0.40224359284028266461E-06
   -0.41797538521328038403E-06
    0.60926981464771615788E-06
   -0.36720914080507407944E-06
   -0.35710332869193114636E-06
    0.50801075435738108370E-06
   -0.42806044462326331224E-06
    0.41334576383754780235E-05
    0.42389576556571288072E-05
   -0.42721709254759019998E-06
    0.38160397996779280361E-06
   -0.39237938995557320906E-06
   -0.39349104237634005348E-06
    0.38357662618028750928E-06
   -0.40923279473149219018E-06
   -0.41823576802555918534E-06
    0.53710898994507606656E-06
   -0.38045501104678789108E-06
   -0.37117915596418361026E-06
    0.44509047187590770332E-06
   -0.42732925240303070595E-06
    0.42048885261337831974E-05
    0.42929664772245667168E-05
   -0.42751725480524245674E-06
    0.37889673279375562234E-06
   -0.39219011717740736576E-06
   -0.39368125058137238928E-06
    0.38366725957544263589E-06
   -0.40636625093008601760E-06
   -0.41475791959070130686E-06
    0.54558031546233045832E-06
   -0.38218859851678015416E-06
   -0.37024173929019281979E-06
    0.42346291349472487936E-06
   -0.42754555455263828777E-06
    0.41964979540481762296E-05
    0.43077660447297321550E-05
   -0.42651448365776897591E-06
    0.34795147449483817203E-06
   -0.39177102702722357275E-06
   -0.39511259841466497600E-06
    0.35158944932392323977E-06
   -0.39404125660246981594E-06
   -0.40892628657894683112E-06
    0.64873255121784422361E-06
   -0.36754003948529207222E-06
   -0.35080713462054336054E-06
    0.46864204903782146468E-06
   -0.42880491497922272185E-06
    0.40930501457991168529E-05
    0.42627523481155289598E-05
   -0.42716430091074777374E-06
    0.34326018026127682421E-06
   -0.39090439333850706958E-06
   -0.39542218276585802503E-06
    0.35195070998111810662E-06
   -0.38890697498527580618E-06
   -0.40165160181070453543E-06
    0.66479403556795447560E-06
   -0.37104367268200699888E-06
   -0.34981309088663932708E-06
    0.42589387230450260137E-06
   -0.42926959153507328412E-06
    0.40784982890666979547E-05
    0.42906635728558478618E-05
   -0.42619489389295726846E-06
    0.41340283083461828129E-06
   -0.39216220837913586616E-06
   -0.39212546703814525431E-06
    0.41243469296835513862E-06
   -0.42540210584996913095E-06
   -0.42613008762619993305E-06
    0.43571136131506082888E-06
   -0.38677551375772507774E-06
    0.81403902135106259661E-06
    0.42934439859346005301E-06
    0.76201909163971769106E-06
    0.43096820258419091612E-05
    0.43098101951376196033E-05
   -0.42243326739163870359E-06
    0.40547794935106643680E-06
   -0.39235142623035063717E-06
   -0.39221931796216178281E-06
    0.40652110577257081169E-06
   -0.42644194248451248342E-06
   -0.42629928237681715349E-06
    0.44394555560657323470E-06
   -0.38531461217543518931E-06
   -0.38665907579426854093E-06
    0.45446366961648760172E-06
   -0.42622720448940313770E-06
    0.43003169214080301809E-05
    0.42862920529533520079E-05
   -0.42553760934705607306E-06
    0.41276611566921489579E-06
   -0.39228464224928123409E-06
   -0.39219848257362593588E-06
    0.41225581608352372528E-06
   -0.42635401814793485331E-06
   -0.42623959337380701148E-06
    0.43406665568040500726E-06
   -0.38688782793008897233E-06
    0.81426517898787099777E-06
    0.43145940475376840813E-06
    0.76249790299770128010E-06
    0.43118167561267789796E-05
    0.43065088098654417872E-05
   -0.42031713538270688052E-06
    0.40280171657091525264E-06
   -0.39255242550611675759E-06
   -0.39228006074209225737E-06
    0.40283992033391076432E-06
   -0.42663758086255559058E-06
   -0.42647529577453796189E-06
    0.44130466970357321078E-06
   -0.38345041817290122574E-06
   -0.38629007071808667579E-06
    0.46560710006407445613E-06
   -0.42502649842486531098E-06
    0.43023427709160858392E-05
    0.42746148868656080774E-05
   -0.41816500150002579955E-06
    0.39298544077038313868E-06
   -0.39275814259588705745E-06
   -0.39252992976240200990E-06
    0.39606543358171732242E-06
   -0.42669705974593559600E-06
   -0.42664652300588752640E-06
    0.46612260728444237369E-06
   -0.37886900211438251854E-06
   -0.38162019144105424113E-06
    0.49196456422582163572E-06
   -0.42532214921831465529E-06
    0.42795436993919827896E-05
    0.42521061675714994250E-05
   -0.41264928433126429152E-06
    0.37121022931223607452E-06
   -0.39354879574074915548E-06
   -0.39325557362524530824E-06
    0.37468613871757221506E-06
   -0.42293661404735279457E-06
   -0.42715506099329975629E-06
    0.51643337782025558278E-06
   -0.36810048977715399406E-06
   -0.37147140026333113482E-06
    0.55026871248444053901E-06
   -0.42573489947308687771E-06
    0.42342963188256316429E-05
    0.41983739030298098389E-05
   -0.41342533281223770513E-06
    0.38668629768812812822E-06
   -0.39316083968760809266E-06
   -0.39253147366295011381E-06
    0.38770315890901313227E-06
   -0.42694400656553600962E-06
   -0.42700263633614818018E-06
    0.46154163578260882962E-06
   -0.37428098940603257674E-06
   -0.38019412860734989771E-06
    0.51804997246424326137E-06
   -0.42210835232820177842E-06
    0.42821741198816572010E-05
    0.42246294826455460156E-05
   -0.40224360609655205350E-06
    0.35713054005452448601E-06
   -0.39446194832140630644E-06
   -0.39283736737992741066E-06
    0.36021130626875237753E-06
   -0.42629592310676255364E-06
   -0.42806047465347433343E-06
    0.50801070814194581588E-06
   -0.35710335091121307431E-06
   -0.36720917797973039568E-06
    0.60926991137254345728E-06
   -0.41797534831475130288E-06
    0.42389575484449219960E-05
    0.41334577473812906531E-05
   -0.42471373025517071407E-06
    0.41264264463730952534E-06
   -0.39238911434462572801E-06
   -0.39224569190232341469E-06
    0.41136849608856248999E-06
   -0.42646737383636348822E-06
   -0.42633347451235152453E-06
    0.42918469216247532791E-06
   -0.38786500177306162907E-06
    0.81464621386317139273E-06
    0.43253613197626426256E-06
    0.76350051451219366246E-06
    0.43161947213235624349E-05
    0.43042105363898269148E-05
   -0.41829629393504113264E-06
    0.40144888974440387248E-06
   -0.39272261112803965157E-06
   -0.39229080310195124342E-06
    0.40006240514325591560E-06
   -0.42682079028368977032E-06
   -0.42663342732268063560E-06
    0.43324145927656587127E-06
   -0.38217426217674257203E-06
   -0.38668231948926937849E-06
    0.47376138299862242264E-06
   -0.42329752412246010943E-06
    0.43082135537012670808E-05
    0.42659056319852618302E-05
   -0.42388454096919025138E-06
    0.41305569302629752859E-06
   -0.39245495391841481348E-06
   -0.39226051322770029820E-06
    0.41100649317437190602E-06
   -0.42654584992397074472E-06
   -0.42639702787416110488E-06
    0.42201591365886967402E-06
   -0.38931075922377475946E-06
    0.81489534805710620426E-06
    0.43242753758349450179E-06
    0.76475025306327625310E-06
    0.43219453239738780899E-05
    0.43034361402513328609E-05
   -0.41677467411852543287E-06
    0.40160883359389689571E-06
   -0.39282733448344434077E-06
   -0.39226322811532639774E-06
    0.39876577202946116137E-06
   -0.42696594148211655306E-06
   -0.42673948745782963298E-06
    0.42185840763825138147E-06
   -0.38178637339635371987E-06
   -0.38775300467013388085E-06
    0.47739267507320924718E-06
   -0.42156154276678600483E-06
    0.43164527624492726770E-05
    0.42620073084972988218E-05
   -0.40923280287898003120E-06
    0.38357659986948895082E-06
   -0.39349109960323809926E-06
   -0.39237938421243894611E-06
    0.38160397519753220827E-06
   -0.42721702154278970084E-06
   -0.42732925242913202622E-06
    0.44509043818737377079E-06
   -0.37117914032914733812E-06
   -0.38045508473780822217E-06
    0.53710906890948741682E-06
   -0.41823572817538482199E-06
    0.42929663353119933427E-05
    0.42048886213566223462E-05
   -0.39404130430074155471E-06
    0.35158946126240523910E-06
   -0.39511270272471186390E-06
   -0.39177102588000331366E-06
    0.34795147901813847655E-06
   -0.42651444443200771363E-06
   -0.42880491833937690674E-06
    0.46864195982254480662E-06
   -0.35080717550689445176E-06
   -0.36754005761379418245E-06
    0.64873269135689408360E-06
   -0.40892625622675921079E-06