# vtk DataFile Version 3.0
LAPLACIEN  2D
ASCII
DATASET UNSTRUCTURED_GRID
 POINTS        1857  float
   3.1250000000000000E-002  0.93750000000000000        0.0000000000000000     
   6.2500000000000000E-002  0.93750000000000000        0.0000000000000000     
   6.2500000000000000E-002  0.96875000000000000        0.0000000000000000     
   1.8749999999999999E-002  0.95625000000000004        0.0000000000000000     
   4.0625000000000001E-002  0.95937499999999998        0.0000000000000000     
   4.3749999999999997E-002  0.98124999999999996        0.0000000000000000     
   2.1874999999999999E-002  0.97812500000000002        0.0000000000000000     
   9.3750000000000000E-002  0.93750000000000000        0.0000000000000000     
  0.12500000000000000       0.93750000000000000        0.0000000000000000     
  0.12500000000000000       0.96875000000000000        0.0000000000000000     
   8.1250000000000003E-002  0.95625000000000004        0.0000000000000000     
  0.10312499999999999       0.95937499999999998        0.0000000000000000     
  0.10625000000000000       0.98124999999999996        0.0000000000000000     
   8.4375000000000006E-002  0.97812500000000002        0.0000000000000000     
   3.1250000000000000E-002  0.87500000000000000        0.0000000000000000     
   6.2500000000000000E-002  0.87500000000000000        0.0000000000000000     
   6.2500000000000000E-002  0.90625000000000000        0.0000000000000000     
   1.8749999999999999E-002  0.89375000000000004        0.0000000000000000     
   4.0625000000000001E-002  0.89687499999999998        0.0000000000000000     
   4.3749999999999997E-002  0.91874999999999996        0.0000000000000000     
   2.1874999999999999E-002  0.91562500000000002        0.0000000000000000     
   9.3750000000000000E-002  0.87500000000000000        0.0000000000000000     
  0.12500000000000000       0.87500000000000000        0.0000000000000000     
  0.12500000000000000       0.90625000000000000        0.0000000000000000     
   8.1250000000000003E-002  0.89375000000000004        0.0000000000000000     
  0.10312499999999999       0.89687499999999998        0.0000000000000000     
  0.10625000000000000       0.91874999999999996        0.0000000000000000     
   8.4375000000000006E-002  0.91562500000000002        0.0000000000000000     
  0.15625000000000000       0.93750000000000000        0.0000000000000000     
  0.18750000000000000       0.93750000000000000        0.0000000000000000     
  0.18750000000000000       0.96875000000000000        0.0000000000000000     
  0.14374999999999999       0.95625000000000004        0.0000000000000000     
  0.16562499999999999       0.95937499999999998        0.0000000000000000     
  0.16875000000000001       0.98124999999999996        0.0000000000000000     
  0.14687500000000001       0.97812500000000002        0.0000000000000000     
  0.21875000000000000       0.93750000000000000        0.0000000000000000     
  0.25000000000000000       0.93750000000000000        0.0000000000000000     
  0.25000000000000000       0.96875000000000000        0.0000000000000000     
  0.20624999999999999       0.95625000000000004        0.0000000000000000     
  0.22812499999999999       0.95937499999999998        0.0000000000000000     
  0.23125000000000001       0.98124999999999996        0.0000000000000000     
  0.20937500000000001       0.97812500000000002        0.0000000000000000     
  0.15625000000000000       0.87500000000000000        0.0000000000000000     
  0.18750000000000000       0.87500000000000000        0.0000000000000000     
  0.18750000000000000       0.90625000000000000        0.0000000000000000     
  0.14374999999999999       0.89375000000000004        0.0000000000000000     
  0.16562499999999999       0.89687499999999998        0.0000000000000000     
  0.16875000000000001       0.91874999999999996        0.0000000000000000     
  0.14687500000000001       0.91562500000000002        0.0000000000000000     
  0.21875000000000000       0.87500000000000000        0.0000000000000000     
  0.25000000000000000       0.87500000000000000        0.0000000000000000     
  0.25000000000000000       0.90625000000000000        0.0000000000000000     
  0.20624999999999999       0.89375000000000004        0.0000000000000000     
  0.22812499999999999       0.89687499999999998        0.0000000000000000     
  0.23125000000000001       0.91874999999999996        0.0000000000000000     
  0.20937500000000001       0.91562500000000002        0.0000000000000000     
   3.1250000000000000E-002  0.81250000000000000        0.0000000000000000     
   6.2500000000000000E-002  0.81250000000000000        0.0000000000000000     
   6.2500000000000000E-002  0.84375000000000000        0.0000000000000000     
   1.8749999999999999E-002  0.83125000000000004        0.0000000000000000     
   4.0625000000000001E-002  0.83437499999999998        0.0000000000000000     
   4.3749999999999997E-002  0.85624999999999996        0.0000000000000000     
   2.1874999999999999E-002  0.85312500000000002        0.0000000000000000     
   9.3750000000000000E-002  0.81250000000000000        0.0000000000000000     
  0.12500000000000000       0.81250000000000000        0.0000000000000000     
  0.12500000000000000       0.84375000000000000        0.0000000000000000     
   8.1250000000000003E-002  0.83125000000000004        0.0000000000000000     
  0.10312499999999999       0.83437499999999998        0.0000000000000000     
  0.10625000000000000       0.85624999999999996        0.0000000000000000     
   8.4375000000000006E-002  0.85312500000000002        0.0000000000000000     
   3.1250000000000000E-002  0.75000000000000000        0.0000000000000000     
   6.2500000000000000E-002  0.75000000000000000        0.0000000000000000     
   6.2500000000000000E-002  0.78125000000000000        0.0000000000000000     
   1.8749999999999999E-002  0.76875000000000004        0.0000000000000000     
   4.0625000000000001E-002  0.77187499999999998        0.0000000000000000     
   4.3749999999999997E-002  0.79374999999999996        0.0000000000000000     
   2.1874999999999999E-002  0.79062500000000002        0.0000000000000000     
   9.3750000000000000E-002  0.75000000000000000        0.0000000000000000     
  0.12500000000000000       0.75000000000000000        0.0000000000000000     
  0.12500000000000000       0.78125000000000000        0.0000000000000000     
   8.1250000000000003E-002  0.76875000000000004        0.0000000000000000     
  0.10312499999999999       0.77187499999999998        0.0000000000000000     
  0.10625000000000000       0.79374999999999996        0.0000000000000000     
   8.4375000000000006E-002  0.79062500000000002        0.0000000000000000     
  0.15625000000000000       0.81250000000000000        0.0000000000000000     
  0.18750000000000000       0.81250000000000000        0.0000000000000000     
  0.18750000000000000       0.84375000000000000        0.0000000000000000     
  0.14374999999999999       0.83125000000000004        0.0000000000000000     
  0.16562499999999999       0.83437499999999998        0.0000000000000000     
  0.16875000000000001       0.85624999999999996        0.0000000000000000     
  0.14687500000000001       0.85312500000000002        0.0000000000000000     
  0.21875000000000000       0.81250000000000000        0.0000000000000000     
  0.25000000000000000       0.81250000000000000        0.0000000000000000     
  0.25000000000000000       0.84375000000000000        0.0000000000000000     
  0.20624999999999999       0.83125000000000004        0.0000000000000000     
  0.22812499999999999       0.83437499999999998        0.0000000000000000     
  0.23125000000000001       0.85624999999999996        0.0000000000000000     
  0.20937500000000001       0.85312500000000002        0.0000000000000000     
  0.15625000000000000       0.75000000000000000        0.0000000000000000     
  0.18750000000000000       0.75000000000000000        0.0000000000000000     
  0.18750000000000000       0.78125000000000000        0.0000000000000000     
  0.14374999999999999       0.76875000000000004        0.0000000000000000     
  0.16562499999999999       0.77187499999999998        0.0000000000000000     
  0.16875000000000001       0.79374999999999996        0.0000000000000000     
  0.14687500000000001       0.79062500000000002        0.0000000000000000     
  0.21875000000000000       0.75000000000000000        0.0000000000000000     
  0.25000000000000000       0.75000000000000000        0.0000000000000000     
  0.25000000000000000       0.78125000000000000        0.0000000000000000     
  0.20624999999999999       0.76875000000000004        0.0000000000000000     
  0.22812499999999999       0.77187499999999998        0.0000000000000000     
  0.23125000000000001       0.79374999999999996        0.0000000000000000     
  0.20937500000000001       0.79062500000000002        0.0000000000000000     
  0.28125000000000000       0.93750000000000000        0.0000000000000000     
  0.31250000000000000       0.93750000000000000        0.0000000000000000     
  0.31250000000000000       0.96875000000000000        0.0000000000000000     
  0.26874999999999999       0.95625000000000004        0.0000000000000000     
  0.29062500000000002       0.95937499999999998        0.0000000000000000     
  0.29375000000000001       0.98124999999999996        0.0000000000000000     
  0.27187499999999998       0.97812500000000002        0.0000000000000000     
  0.34375000000000000       0.93750000000000000        0.0000000000000000     
  0.37500000000000000       0.93750000000000000        0.0000000000000000     
  0.37500000000000000       0.96875000000000000        0.0000000000000000     
  0.33124999999999999       0.95625000000000004        0.0000000000000000     
  0.35312500000000002       0.95937499999999998        0.0000000000000000     
  0.35625000000000001       0.98124999999999996        0.0000000000000000     
[...]
 CELL_DATA        3584
 SCALARS Tumor_cells float
 LOOKUP_TABLE default
   -0.62291223598502469115E-06
    0.64583367531218351880E-06
   -0.53856253355768559566E-06
   -0.53856239804138337272E-06
    0.64583364122539724672E-06
   -0.62291220200842162952E-06
    0.11784925586780593254E-05
    0.65391329520086184464E-06
    0.12566375317514442720E-05
    0.12566375566522770275E-05
    0.65391329785837784759E-06
    0.11784924841925287601E-05
    0.69686072733909938925E-05
    0.69686075521880903855E-05
   -0.62156786764294725886E-06
    0.64305583802908492021E-06
   -0.53866913568761984203E-06
   -0.53868748214969108987E-06
    0.64310871220940833506E-06
   -0.62295236502937722600E-06
    0.11762456448352149737E-05
    0.65781532168433418802E-06
    0.12559390368785868889E-05
   -0.53429182611764748476E-06
    0.66564306224240575509E-06
   -0.62287152905829752499E-06
    0.69652019474117386944E-05
    0.69584278618049298011E-05
   -0.62295244438944666565E-06
    0.64310870653254460641E-06
   -0.53868749664022899036E-06
   -0.53866899119324568127E-06
    0.64305591518253929984E-06
   -0.62156776012542466890E-06
   -0.62287156842693868709E-06
    0.66564282161776329628E-06
   -0.53429190208522048049E-06
    0.12559390809206752687E-05
    0.65781537881505391904E-06
    0.11762456240550312764E-05
    0.69584271474304363692E-05
    0.69652017421403080428E-05
   -0.62186647652714309078E-06
    0.63948728094069467159E-06
   -0.53885434465488629527E-06
   -0.53885430406253017565E-06
    0.63948734029253373718E-06
   -0.62186633167784529034E-06
   -0.62309917060080244925E-06
    0.67197381462938546843E-06
   -0.53431745937168041649E-06
   -0.53431751797021528324E-06
    0.67197416728978244126E-06
   -0.62309911964170813225E-06
    0.69504897274038673129E-05
    0.69504899619324529315E-05
   -0.62056346583303717260E-06
    0.63995155798311963595E-06
   -0.53885828319048438333E-06
   -0.53887880118860163674E-06
    0.64054074553176553028E-06
   -0.62305346930114932417E-06
    0.11742881426883454526E-05
    0.66303595285975211974E-06
    0.12554437965523369796E-05
   -0.53115875624494031590E-06
    0.67731322411814708380E-06
   -0.62245179654274707652E-06
    0.69597412556861101168E-05
    0.69496488597944760553E-05
   -0.62041949083731503990E-06
    0.63718979600522360384E-06
   -0.53911744923946694458E-06
   -0.53911733395510782615E-06
    0.63854803145729028591E-06
   -0.62321689236632024961E-06
    0.11729802910370149252E-05
    0.66928379870796674180E-06
    0.12552054599639265311E-05
   -0.52855369455853020120E-06
    0.68692364577917761430E-06
   -0.62275193612641725493E-06
    0.69521932466543773886E-05
    0.69438285706969060939E-05
   -0.62073766728592665771E-06
    0.63376746933315501914E-06
   -0.53916131699432914560E-06
   -0.53914706378210225415E-06
    0.63417524122386940507E-06
   -0.62100388278994860646E-06
   -0.62326516078615389767E-06
    0.68571943451312984646E-06
   -0.53166025506726040748E-06
   -0.53176302663901008288E-06
    0.68999852397657954285E-06
   -0.62325000162608898492E-06
    0.69355690109118091113E-05
    0.69360501500316021397E-05
   -0.62111513680292468968E-06
    0.62769794617382101042E-06
   -0.53960920634284339231E-06
   -0.53952762443466683994E-06
    0.62726326017278904362E-06
   -0.61863108190070199227E-06
   -0.62347784916557191349E-06
    0.70800077585946971279E-06
   -0.52895975348069887096E-06
   -0.52816482139145813356E-06
    0.70503786589798023525E-06
   -0.62351172501814240021E-06
    0.69126211979774042579E-05
    0.69241597159345909579E-05
   -0.62305353906307815690E-06
    0.64054066663641510555E-06
   -0.53887889661890424768E-06
   -0.53885810134260618177E-06
    0.63995157980750363365E-06
   -0.62056337256080881045E-06
   -0.62245176058170061475E-06
    0.67731303987277282998E-06
   -0.53115884795107368589E-06
    0.12554437575680415701E-05
    0.66303598349622337304E-06
    0.11742881439212671288E-05
    0.69496485004818284336E-05
    0.69597414465692478974E-05
   -0.62100401580170400040E-06
    0.63417517364943195774E-06
   -0.53914711985304919580E-06
   -0.53916122185302665885E-06
    0.63376751664072407597E-06
   -0.62073756329499810920E-06
   -0.62325005866256243040E-06
    0.68999821168650848427E-06
   -0.53176298983590847473E-06
   -0.53166028486691117802E-06
    0.68571967710421466710E-06
   -0.62326513507025077145E-06
    0.69360503503813232873E-05
    0.69355697505627728115E-05
   -0.62321693302409230023E-06
    0.63854806762961090517E-06
   -0.53911740757019588868E-06
   -0.53911731357258545116E-06
    0.63718978336056901877E-06
   -0.62041938077056071546E-06
   -0.62275198225215543941E-06
    0.68692346481654879251E-06
   -0.52855373274858822703E-06
    0.12552054761312098787E-05
    0.66928379015003754537E-06
    0.11729802720491417211E-05
    0.69438282424356994249E-05
    0.69521934455448852318E-05
   -0.61863119068039218858E-06
    0.62726312790429203777E-06
   -0.53952767430086355597E-06
   -0.53960910359258348340E-06
    0.62769795254082950268E-06
   -0.62111502137004342614E-06
   -0.62351178404800465491E-06
    0.70503757250205829104E-06
   -0.52816479066710424736E-06
   -0.52895977114666937592E-06
    0.70800099115047088519E-06
   -0.62347784926843834746E-06
    0.69241599419589835738E-05
    0.69126219056182720564E-05
   -0.61875911235721605300E-06
    0.62364716917379099429E-06
   -0.53967602557063884976E-06
   -0.53967593138299117068E-06
    0.62364712047583270701E-06
   -0.61875904862051082442E-06
   -0.62349504829819813537E-06
    0.71734525941390038194E-06
   -0.52685991931320829091E-06
   -0.52685996558026026423E-06
    0.71734551892374506374E-06
   -0.62349502596017589956E-06
    0.69085333824812716029E-05
    0.69085336610250620460E-05
   -0.61862900988926630758E-06
    0.61071757839153002887E-06
   -0.54053087693621941348E-06
   -0.54041161398444141898E-06
    0.60897690587007900683E-06
   -0.61356318465467812313E-06
   -0.62379286312305547620E-06
    0.76485392941792725546E-06
   -0.52093973024377182528E-06
   -0.51928817319964887165E-06
    0.74819777220868843794E-06
   -0.62392814780739360935E-06
    0.68618348661995568838E-05
    0.68817354827099172341E-05
   -0.61356320766015183935E-06
    0.60897686557997526538E-06
   -0.54041170332486343629E-06
   -0.54053080241171770938E-06
    0.61071762589515682568E-06
   -0.61862892065113008315E-06
   -0.62392818561674918302E-06
    0.74819758653387980530E-06
   -0.51928811798251865825E-06
   -0.52093971480107974187E-06
    0.76485418137483589779E-06
   -0.62379286592869604816E-06
    0.68817352130448879275E-05
    0.68618351221079300234E-05
   -0.60983335737627570253E-06
    0.58209437743730017664E-06
   -0.54205672889052122071E-06
   -0.54205665113466431464E-06
    0.58209443293243888531E-06
   -0.60983321713701400983E-06
   -0.62440322056191820307E-06
    0.83300410416356245174E-06
   -0.50651142083348853635E-06
   -0.50651139866796625431E-06
    0.83300432169871770207E-06
   -0.62440317468239904971E-06
    0.67992442829106904017E-05
    0.67992445387456274788E-05
   -0.62146513583735363704E-06
    0.63545988096193014950E-06
   -0.53941425956266696858E-06
   -0.53936308856840983558E-06
    0.63763441276237977602E-06
   -0.62338368665055829960E-06
    0.11727565525407288534E-05
    0.67570550640371423009E-06
    0.12553279370487633552E-05
   -0.52707319539423186139E-06
    0.69147018714249659147E-06
   -0.62350294834702891347E-06
    0.69433074952910539207E-05
    0.69429973352330929065E-05
   -0.62348101365932366040E-06
    0.63504526135758133817E-06
   -0.53967107499818152247E-06
   -0.53957290895550575405E-06
    0.63620624188887343683E-06
   -0.62194120482569554796E-06
    0.11738807992493021387E-05
    0.68092690516946894509E-06
    0.12558672118293814983E-05
   -0.52732264622679328610E-06
    0.68754432581984535351E-06
   -0.62375511174157890200E-06
    0.69348695180604095936E-05
    0.69484553977656537629E-05
   -0.62328291422744591148E-06
    0.62214509414251132165E-06
   -0.54011499715010514889E-06
   -0.53993928573763070438E-06
    0.61984299423778383213E-06
   -0.61473643487857469968E-06
   -0.62370024709897516703E-06
    0.73744482758760666541E-06
   -0.52676232651716624309E-06
   -0.52382089244798846767E-06
    0.71198614069497924251E-06
   -0.62388983002410097477E-06
    0.68831944327081116418E-05
    0.69189903118844940996E-05
   -0.62331036157094713756E-06
    0.61371559679784551052E-06
   -0.54048098526506446140E-06
   -0.54029717116384131390E-06
    0.61383490081507103084E-06
   -0.61001530411687722344E-06
   -0.62087591152163626915E-06
    0.76479032262967816322E-06
   -0.52584151222653952543E-06
   -0.51966294837675467903E-06
    0.70583447470270498320E-06
   -0.62429180358166071726E-06
    0.68533221832787176651E-05
    0.69240462612529546387E-05
   -0.62361510698905104736E-06
    0.63296137501868870620E-06
   -0.53983663945791663154E-06
   -0.53970573499833446233E-06
    0.63593067246817893928E-06
   -0.62015779132100547232E-06
    0.11762260761048565359E-05
    0.68363226311518699587E-06
    0.12567652198003475796E-05
   -0.52951531847129225785E-06
    0.67572949668918793530E-06
   -0.62396847634591414607E-06
    0.69289909577086042383E-05
    0.69596357147822001909E-05
   -0.62372494509049056198E-06
    0.63205084328712716145E-06
   -0.53988674994945597108E-06
   -0.53973562942231809471E-06
    0.63686130608313006262E-06
   -0.61837485522816720409E-06
    0.11791470058555454253E-05
    0.68342931194392463714E-06
    0.12573580994427440854E-05
   -0.53276335159339977741E-06
    0.65831131489766674908E-06
   -0.62411364749316358833E-06
    0.69270081303483994477E-05
    0.69743253098717126155E-05
   -0.62338902658048643518E-06
    0.60725904228911729778E-06
   -0.54062695891979129814E-06
   -0.54052362726378575348E-06
    0.61078202981634671258E-06
   -0.60556950175788493182E-06
   -0.61681270794241754081E-06
    0.78491858398703051152E-06
   -0.52664295921689374111E-06
   -0.51687468888025385166E-06
    0.68654260138333997109E-06
   -0.62465979355075784234E-06
    0.68309838771265045512E-05
    0.69388695052629296013E-05
   -0.62355717336020417077E-06
    0.60413056040476926918E-06
   -0.54057237342638665264E-06
   -0.54057283992693251059E-06
    0.61112362994665261565E-06
   -0.60226726702635288056E-06
   -0.61274023599157882692E-06
    0.79400893254686230262E-06
   -0.52901380416662295318E-06
   -0.51611171374867945253E-06
    0.65912379991256799755E-06
   -0.62491424190984449744E-06
    0.68209246908992074050E-05
    0.69597747752310497570E-05
   -0.62291440222902134167E-06
    0.59858359002943169838E-06
   -0.54161740040416202922E-06
   -0.54127497627655570159E-06
    0.59176237390793311240E-06
   -0.60473888795424406465E-06
   -0.62145751698810951048E-06
    0.82920485394226545918E-06
   -0.51502322466874120460E-06
   -0.50909463902746912726E-06
    0.76638462904959591730E-06
   -0.62468303955917188906E-06
    0.67955267248705206927E-05
    0.68655305571135637693E-05
   -0.62228725597334164424E-06
    0.57928355226485370675E-06
   -0.54203257446145408372E-06
   -0.54204969565683394087E-06
    0.57747864777004487428E-06
   -0.59418414376546477091E-06
   -0.61369542564165887421E-06
    0.89354110837021103773E-06
   -0.51135705489733945319E-06
   -0.49873462495775763481E-06
    0.75587078501538999989E-06
   -0.62550845708428036911E-06
    0.67246339335701295294E-05
    0.68715005977542029306E-05
   -0.61243871098868467835E-06
    0.55033414493145357390E-06
   -0.54446042753482058006E-06
   -0.54400355708196852951E-06
    0.54269593940556159356E-06
   -0.59136755764869077223E-06
   -0.62208807829036797323E-06
    0.97172150921267762811E-06
   -0.49050555358370790525E-06
   -0.48340644884349572924E-06
    0.88890408160533871924E-06
   -0.62568505985889681791E-06
    0.66565638035559585671E-05
    0.67479604274091560249E-05
   -0.61538930438911044195E-06
    0.51737964690687103822E-06
   -0.54336816800427126897E-06
   -0.54547396633891557762E-06
    0.51058882091352283906E-06
   -0.56847761055502218154E-06
   -0.60258569351258298546E-06
    0.11178220688683092741E-05
   -0.47860689302415618963E-06
   -0.45787063050469840635E-06
    0.86957370786535609394E-06
   -0.62758548277901714717E-06
    0.64883684756599755594E-05
    0.67548538369743667199E-05
   -0.62198909983450489355E-06
    0.56481724107906602105E-06
   -0.54170890762367030990E-06
   -0.54253428642835383705E-06
    0.57020711266022187002E-06
   -0.58493843944075094463E-06
   -0.60426175944386026012E-06
    0.94140491607156532850E-06
   -0.51157125201897354760E-06
   -0.49193289871865093192E-06
    0.71682570983260336303E-06
   -0.62630532564026710607E-06
    0.66728429810143180751E-05
    0.68981757991616014593E-05
   -0.62232785600344138193E-06
    0.55799887506549400607E-06
   -0.54105876953281743006E-06
   -0.54262526102068057134E-06
    0.57021745637642585197E-06
   -0.57867140881020872429E-06
   -0.59578111661787176041E-06
    0.96353843034772442209E-06
   -0.51537525142272405264E-06
   -0.49015604739670904250E-06
    0.66479173825605389487E-06
   -0.62687913681684967099E-06
    0.66500450083707247920E-05
    0.69356520885381193838E-05
   -0.61278711261155125243E-06
    0.48867726297299222556E-06
   -0.53910467075291409020E-06
   -0.54598068891437013785E-06
    0.49690909166241386320E-06
   -0.55043536420337516703E-06
   -0.57922678103479553331E-06
    0.12200051055116906531E-05
   -0.47753175935830953814E-06
   -0.44409601127614184167E-06
    0.77747618820793768165E-06
   -0.62900030121684590142E-06
    0.63794114416653161764E-05
    0.68093307835622525655E-05
   -0.61338719573931921302E-06
    0.47692644549327465758E-06
   -0.53542363198394973725E-06
   -0.54571900867013196289E-06
    0.49705809113701085051E-06
   -0.53900133967878301673E-06
   -0.56000993149770508291E-06
    0.12655345665335244774E-05
   -0.48510081635452925801E-06
   -0.44290290470936248670E-06
    0.67423701777934756327E-06
   -0.62991048948349078126E-06
    0.63365847116731130979E-05
    0.68786177403365389644E-05
   -0.62338371688201524346E-06
    0.63763445666382976980E-06
   -0.53936324979409938379E-06
   -0.53941406386641714292E-06
    0.63545986830648097655E-06
   -0.62146500914568830986E-06
   -0.62350297932521115126E-06
    0.69147001206619798162E-06
   -0.52707337908726704761E-06
    0.12553279396089733778E-05
    0.67570552992123302133E-06
    0.11727565617233704712E-05
    0.69429969696150193700E-05
    0.69433077300582444853E-05
   -0.61473654717188122802E-06
    0.61984290861899959192E-06
   -0.53993940211725392796E-06
   -0.54011492516431121842E-06
    0.62214509662315805724E-06
   -0.62328284276530839544E-06
   -0.62388988803394063752E-06
    0.71198583864021111422E-06
   -0.52382093757989378953E-06
   -0.52676239752666068119E-06
    0.73744506717268452927E-06
   -0.62370024394011963260E-06
    0.69189905093801063913E-05
    0.68831951751726468952E-05
   -0.62194124597839307895E-06
    0.63620624183457322507E-06
   -0.53957303241761984768E-06
   -0.53967093466092245881E-06
    0.63504525000205150064E-06
   -0.62348089358860603252E-06
   -0.62375514912682751420E-06
    0.68754415187225043902E-06
   -0.52732279696350010083E-06
    0.12558672419658305681E-05
    0.68092692161306852206E-06
    0.11738807717525374401E-05
    0.69484550735492115291E-05
    0.69348697578266869690E-05
   -0.61001537486127088960E-06
    0.61383483439368238220E-06
   -0.54029731885119870768E-06
   -0.54048084464037673143E-06
    0.61371555815164499600E-06
   -0.62331032236035851178E-06
   -0.62429183948723890884E-06
    0.70583417194440484145E-06
   -0.51966294396232611327E-06
   -0.52584160444580143146E-06
    0.76479057476308994292E-06
   -0.62087588684272000487E-06
    0.69240464301681557130E-05
    0.68533228903114869581E-05
   -0.60473890875162623655E-06
    0.59176237967972985856E-06
   -0.54127512586192917111E-06
   -0.54161737418973332085E-06
    0.59858356546409270556E-06
   -0.62291432828124870125E-06
   -0.62468310278859363833E-06
    0.76638443710979173480E-06
   -0.50909470068884866150E-06
   -0.51502325648583006143E-06
    0.82920510250199324777E-06
   -0.62145749396469351886E-06
    0.68655303018754206958E-05
    0.67955269866704154033E-05
   -0.59136759917352153480E-06
    0.54269597312607567853E-06
   -0.54400373610360398849E-06
   -0.54446036531520059380E-06
    0.55033415893467796148E-06
   -0.61243861365783759833E-06
   -0.62568509931181500540E-06
    0.88890386470761821925E-06
   -0.48340653812482703409E-06
   -0.49050560158613705223E-06
    0.97172174163667605803E-06
   -0.62208807147817378697E-06
    0.67479601444555341815E-05
    0.66565641107685371043E-05
   -0.59418422417374965889E-06
    0.57747863982212318372E-06
   -0.54204983688360687754E-06
   -0.54203250902600458591E-06
    0.57928357945368603600E-06
   -0.62228716080394116880E-06
   -0.62550844500201680338E-06
    0.75587062554783845942E-06
   -0.49873469943843300718E-06
   -0.51135708788271163154E-06
    0.89354135935132607813E-06
   -0.61369539559954735774E-06
    0.68715002773072851640E-05
    0.67246341936968266961E-05
   -0.56847763708112725077E-06
    0.51058884225057310094E-06
   -0.54547412054353737933E-06
   -0.54336809866715052924E-06
    0.51737964420106166355E-06
   -0.61538925173235595201E-06
   -0.62758551852449202981E-06
    0.86957352554575486790E-06
   -0.45787071421930392968E-06
   -0.47860689490544876449E-06
    0.11178222700282026127E-05
   -0.60258564013119106799E-06
    0.67548535022633429708E-05
    0.64883687895361046944E-05
   -0.62015783142581493322E-06
    0.63593065982064147758E-06
   -0.53970582510277183362E-06
   -0.53983650793260580421E-06
    0.63296133150011581579E-06
   -0.62361501672376307230E-06
   -0.62396852935232288373E-06
    0.67572932781714795432E-06
   -0.52951547038648829407E-06
    0.12567652445769392364E-05
    0.68363232622841922406E-06
    0.11762260921040898174E-05
    0.69596354095286487714E-05
    0.69289911773191651217E-05
   -0.60556958970278935771E-06
    0.61078192157296919110E-06
   -0.54052377732078240347E-06
   -0.54062692533824810888E-06
    0.60725905676250034586E-06
   -0.62338895198122274442E-06
   -0.62465979650096364499E-06
    0.68654229225670827162E-06
   -0.51687469506742443785E-06
   -0.52664301917323661011E-06
    0.78491885474781816708E-06
   -0.61681266427670602774E-06
    0.69388696948212849825E-05
    0.68309846048052767230E-05
   -0.61837491234581107575E-06
    0.63686129473758282601E-06
   -0.53973577417588232563E-06
   -0.53988664886517942634E-06
    0.63205086775163619926E-06
   -0.62372488517747893395E-06
   -0.62411361359870419374E-06
    0.65831112013001109668E-06
   -0.53276349761850244605E-06
    0.12573581077754628912E-05
    0.68342939311517466411E-06
    0.11791469958738840758E-05
    0.69743249985082237093E-05
    0.69270083368489231867E-05
   -0.60226735277608449689E-06
    0.61112351337180640306E-06
   -0.54057296520814970246E-06
   -0.54057236281835365018E-06
    0.60413055560678830302E-06
   -0.62355707444844272777E-06
   -0.62491426635319825212E-06
    0.65912349439311080725E-06
   -0.51611176509564709674E-06
   -0.52901383248268895209E-06
    0.79400921292391590551E-06
   -0.61274019972072710008E-06
    0.69597749401644336495E-05
    0.68209253585022177677E-05
   -0.58493849682928802304E-06
    0.57020705801251124948E-06
   -0.54253442889010864588E-06
   -0.54170887594701369236E-06
    0.56481725869212089549E-06
   -0.62198896559127868490E-06
   -0.62630533949847341797E-06
    0.71682556247712480705E-06
   -0.49193290956628245011E-06
   -0.51157130360469976848E-06
    0.94140514591205990622E-06
   -0.60426170390679691458E-06
    0.68981754544089267346E-05
    0.66728432408056401697E-05
   -0.55043545849754359197E-06
    0.49690908235043380839E-06
   -0.54598085755826931190E-06
   -0.53910460581882794667E-06
    0.48867727807166314799E-06
   -0.61278702590870121204E-06
   -0.62900030946581686573E-06
    0.77747605875753072625E-06
   -0.44409610453018091243E-06
   -0.47753172295227061176E-06
    0.12200054151074620324E-05
   -0.57922671197703113002E-06