# vtk DataFile Version 3.0
LAPLACIEN  2D
ASCII
DATASET UNSTRUCTURED_GRID
 POINTS        1857  float
   3.1250000000000000E-002  0.93750000000000000        0.0000000000000000     
   6.2500000000000000E-002  0.93750000000000000        0.0000000000000000     
   6.2500000000000000E-002  0.96875000000000000        0.0000000000000000     
   1.8749999999999999E-002  0.95625000000000004        0.0000000000000000     
   4.0625000000000001E-002  0.95937499999999998        0.0000000000000000     
   4.3749999999999997E-002  0.98124999999999996        0.0000000000000000     
   2.1874999999999999E-002  0.97812500000000002        0.0000000000000000     
   9.3750000000000000E-002  0.93750000000000000        0.0000000000000000     
  0.12500000000000000       0.93750000000000000        0.0000000000000000     
  0.12500000000000000       0.96875000000000000        0.0000000000000000     
   8.1250000000000003E-002  0.95625000000000004        0.0000000000000000     
  0.10312499999999999       0.95937499999999998        0.0000000000000000     
  0.10625000000000000       0.98124999999999996        0.0000000000000000     
   8.4375000000000006E-002  0.97812500000000002        0.0000000000000000     
   3.1250000000000000E-002  0.87500000000000000        0.0000000000000000     
   6.2500000000000000E-002  0.87500000000000000        0.0000000000000000     
   6.2500000000000000E-002  0.90625000000000000        0.0000000000000000     
   1.8749999999999999E-002  0.89375000000000004        0.0000000000000000     
   4.0625000000000001E-002  0.89687499999999998        0.0000000000000000     
   4.3749999999999997E-002  0.91874999999999996        0.0000000000000000     
   2.1874999999999999E-002  0.91562500000000002        0.0000000000000000     
   9.3750000000000000E-002  0.87500000000000000        0.0000000000000000     
  0.12500000000000000       0.87500000000000000        0.0000000000000000     
  0.12500000000000000       0.90625000000000000        0.0000000000000000     
   8.1250000000000003E-002  0.89375000000000004        0.0000000000000000     
  0.10312499999999999       0.89687499999999998        0.0000000000000000     
  0.10625000000000000       0.91874999999999996        0.0000000000000000     
   8.4375000000000006E-002  0.91562500000000002        0.0000000000000000     
  0.15625000000000000       0.93750000000000000        0.0000000000000000     
  0.18750000000000000       0.93750000000000000        0.0000000000000000     
  0.18750000000000000       0.96875000000000000        0.0000000000000000     
  0.14374999999999999       0.95625000000000004        0.0000000000000000     
  0.16562499999999999       0.95937499999999998        0.0000000000000000     
  0.16875000000000001       0.98124999999999996        0.0000000000000000     
  0.14687500000000001       0.97812500000000002        0.0000000000000000     
  0.21875000000000000       0.93750000000000000        0.0000000000000000     
  0.25000000000000000       0.93750000000000000        0.0000000000000000     
  0.25000000000000000       0.96875000000000000        0.0000000000000000     
  0.20624999999999999       0.95625000000000004        0.0000000000000000     
  0.22812499999999999       0.95937499999999998        0.0000000000000000     
  0.23125000000000001       0.98124999999999996        0.0000000000000000     
  0.20937500000000001       0.97812500000000002        0.0000000000000000     
  0.15625000000000000       0.87500000000000000        0.0000000000000000     
  0.18750000000000000       0.87500000000000000        0.0000000000000000     
  0.18750000000000000       0.90625000000000000        0.0000000000000000     
  0.14374999999999999       0.89375000000000004        0.0000000000000000     
  0.16562499999999999       0.89687499999999998        0.0000000000000000     
  0.16875000000000001       0.91874999999999996        0.0000000000000000     
  0.14687500000000001       0.91562500000000002        0.0000000000000000     
  0.21875000000000000       0.87500000000000000        0.0000000000000000     
  0.25000000000000000       0.87500000000000000        0.0000000000000000     
  0.25000000000000000       0.90625000000000000        0.0000000000000000     
  0.20624999999999999       0.89375000000000004        0.0000000000000000     
  0.22812499999999999       0.89687499999999998        0.0000000000000000     
  0.23125000000000001       0.91874999999999996        0.0000000000000000     
  0.20937500000000001       0.91562500000000002        0.0000000000000000     
   3.1250000000000000E-002  0.81250000000000000        0.0000000000000000     
   6.2500000000000000E-002  0.81250000000000000        0.0000000000000000     
   6.2500000000000000E-002  0.84375000000000000        0.0000000000000000     
   1.8749999999999999E-002  0.83125000000000004        0.0000000000000000     
   4.0625000000000001E-002  0.83437499999999998        0.0000000000000000     
   4.3749999999999997E-002  0.85624999999999996        0.0000000000000000     
   2.1874999999999999E-002  0.85312500000000002        0.0000000000000000     
   9.3750000000000000E-002  0.81250000000000000        0.0000000000000000     
  0.12500000000000000       0.81250000000000000        0.0000000000000000     
  0.12500000000000000       0.84375000000000000        0.0000000000000000     
   8.1250000000000003E-002  0.83125000000000004        0.0000000000000000     
  0.10312499999999999       0.83437499999999998        0.0000000000000000     
  0.10625000000000000       0.85624999999999996        0.0000000000000000     
   8.4375000000000006E-002  0.85312500000000002        0.0000000000000000     
   3.1250000000000000E-002  0.75000000000000000        0.0000000000000000     
   6.2500000000000000E-002  0.75000000000000000        0.0000000000000000     
   6.2500000000000000E-002  0.78125000000000000        0.0000000000000000     
   1.8749999999999999E-002  0.76875000000000004        0.0000000000000000     
   4.0625000000000001E-002  0.77187499999999998        0.0000000000000000     
   4.3749999999999997E-002  0.79374999999999996        0.0000000000000000     
   2.1874999999999999E-002  0.79062500000000002        0.0000000000000000     
   9.3750000000000000E-002  0.75000000000000000        0.0000000000000000     
  0.12500000000000000       0.75000000000000000        0.0000000000000000     
  0.12500000000000000       0.78125000000000000        0.0000000000000000     
   8.1250000000000003E-002  0.76875000000000004        0.0000000000000000     
  0.10312499999999999       0.77187499999999998        0.0000000000000000     
  0.10625000000000000       0.79374999999999996        0.0000000000000000     
   8.4375000000000006E-002  0.79062500000000002        0.0000000000000000     
  0.15625000000000000       0.81250000000000000        0.0000000000000000     
  0.18750000000000000       0.81250000000000000        0.0000000000000000     
  0.18750000000000000       0.84375000000000000        0.0000000000000000     
  0.14374999999999999       0.83125000000000004        0.0000000000000000     
  0.16562499999999999       0.83437499999999998        0.0000000000000000     
  0.16875000000000001       0.85624999999999996        0.0000000000000000     
  0.14687500000000001       0.85312500000000002        0.0000000000000000     
  0.21875000000000000       0.81250000000000000        0.0000000000000000     
  0.25000000000000000       0.81250000000000000        0.0000000000000000     
  0.25000000000000000       0.84375000000000000        0.0000000000000000     
  0.20624999999999999       0.83125000000000004        0.0000000000000000     
  0.22812499999999999       0.83437499999999998        0.0000000000000000     
  0.23125000000000001       0.85624999999999996        0.0000000000000000     
  0.20937500000000001       0.85312500000000002        0.0000000000000000     
  0.15625000000000000       0.75000000000000000        0.0000000000000000     
  0.18750000000000000       0.75000000000000000        0.0000000000000000     
  0.18750000000000000       0.78125000000000000        0.0000000000000000     
  0.14374999999999999       0.76875000000000004        0.0000000000000000     
  0.16562499999999999       0.77187499999999998        0.0000000000000000     
  0.16875000000000001       0.79374999999999996        0.0000000000000000     
  0.14687500000000001       0.79062500000000002        0.0000000000000000     
  0.21875000000000000       0.75000000000000000        0.0000000000000000     
  0.25000000000000000       0.75000000000000000        0.0000000000000000     
  0.25000000000000000       0.78125000000000000        0.0000000000000000     
  0.20624999999999999       0.76875000000000004        0.0000000000000000     
  0.22812499999999999       0.77187499999999998        0.0000000000000000     
  0.23125000000000001       0.79374999999999996        0.0000000000000000     
  0.20937500000000001       0.79062500000000002        0.0000000000000000     
  0.28125000000000000       0.93750000000000000        0.0000000000000000     
  0.31250000000000000       0.93750000000000000        0.0000000000000000     
  0.31250000000000000       0.96875000000000000        0.0000000000000000     
  0.26874999999999999       0.95625000000000004        0.0000000000000000     
  0.29062500000000002       0.95937499999999998        0.0000000000000000     
  0.29375000000000001       0.98124999999999996        0.0000000000000000     
  0.27187499999999998       0.97812500000000002        0.0000000000000000     
  0.34375000000000000       0.93750000000000000        0.0000000000000000     
  0.37500000000000000       0.93750000000000000        0.0000000000000000     
  0.37500000000000000       0.96875000000000000        0.0000000000000000     
  0.33124999999999999       0.95625000000000004        0.0000000000000000     
  0.35312500000000002       0.95937499999999998        0.0000000000000000     
  0.35625000000000001       0.98124999999999996        0.0000000000000000     
[...]
 CELL_DATA        3584
 SCALARS Tumor_cells float
 LOOKUP_TABLE default
   -0.73585428388598956773E-06
    0.76574638152262190828E-06
   -0.61690390820604834814E-06
   -0.61690369351327859429E-06
    0.76574633755624006283E-06
   -0.73585423198375858055E-06
    0.14051596037757350142E-05
    0.77728883000593990946E-06
    0.14978607359048597407E-05
    0.14978607621839624851E-05
    0.77728887485434880959E-06
    0.14051595117680487035E-05
    0.84997176925014243719E-05
    0.84997180887911724862E-05
   -0.73396339868892025210E-06
    0.76189159417077747287E-06
   -0.61706997504163656091E-06
   -0.61712120720299858673E-06
    0.76194505922799198077E-06
   -0.73586043090138223167E-06
    0.14019866487953617534E-05
    0.78291156670334966673E-06
    0.14968598819404503744E-05
   -0.61091574166505371814E-06
    0.79426635851146411786E-06
   -0.73585148687648280586E-06
    0.84947287994766281161E-05
    0.84848201234453994650E-05
   -0.73586053913903190460E-06
    0.76194505327792677471E-06
   -0.61712125877965319063E-06
   -0.61706978784739968694E-06
    0.76189167714738547681E-06
   -0.73396325291687884085E-06
   -0.73585152251557490312E-06
    0.79426599419164623822E-06
   -0.61091589435632918684E-06
    0.14968599177783667271E-05
    0.78291165704762346412E-06
    0.14019866173385111386E-05
    0.84848191833449155012E-05
    0.84947286338042223767E-05
   -0.73431710752427952755E-06
    0.75693462395235188932E-06
   -0.61739533185345124697E-06
   -0.61739524325861928768E-06
    0.75693470110299719007E-06
   -0.73431694860379109821E-06
   -0.73617010678403012817E-06
    0.80348433466546914943E-06
   -0.61097515793677486088E-06
   -0.61097522419298086162E-06
    0.80348482188019006238E-06
   -0.73617004421741822463E-06
    0.84732005269098743610E-05
    0.84732008628704428080E-05
   -0.73252269247336438438E-06
    0.75758150378480131506E-06
   -0.61736774830617171753E-06
   -0.61742241736621290671E-06
    0.75837314823799922978E-06
   -0.73595861811201687465E-06
    0.13992242017941604071E-05
    0.79043888993700216227E-06
    0.14961590900414919149E-05
   -0.60655773874200599700E-06
    0.81114461010325214150E-06
   -0.73525934378262538897E-06
    0.84867307053015923177E-05
    0.84719751369446136459E-05
   -0.73226270311422321862E-06
    0.75374777328014826373E-06
   -0.61778153751301872017E-06
   -0.61777296182205066324E-06
    0.75561397308114839040E-06
   -0.73616180538926000480E-06
    0.13973802869704092402E-05
    0.79945690612370650145E-06
    0.14958258305923195873E-05
   -0.60293169225912078199E-06
    0.82503105109736466134E-06
   -0.73567859395517953194E-06
    0.84756777153369265850E-05
    0.84634604591722545011E-05
   -0.73265718007974824307E-06
    0.74899193868820921498E-06
   -0.61790787706486084030E-06
   -0.61786550201478903845E-06
    0.74955765109255613600E-06
   -0.73304897406631622122E-06
   -0.73640015170074937287E-06
    0.82338872756732488473E-06
   -0.60727856678526016631E-06
   -0.60741650396741966470E-06
    0.82953607114171077291E-06
   -0.73637821882274155243E-06
    0.84513587034315741940E-05
    0.84520681183922708130E-05
   -0.73303665176130652207E-06
    0.74055491350349976162E-06
   -0.61867275363321096877E-06
   -0.61844008838326136442E-06
    0.73995450968331858118E-06
   -0.72968629587381763593E-06
   -0.73669239902387556401E-06
    0.85559371571204922428E-06
   -0.60349502489372677623E-06
   -0.60239380880785654098E-06
    0.85131970372682045356E-06
   -0.73674348894716713583E-06
    0.84177460047636894685E-05
    0.84346467947691929653E-05
   -0.73595870360436281276E-06
    0.75837306092127709570E-06
   -0.61742256362534908461E-06
   -0.61736749205241337630E-06
    0.75758154680042181738E-06
   -0.73252257461786110675E-06
   -0.73525931258067335190E-06
    0.81114435091674598194E-06
   -0.60655787721035653100E-06
    0.14961590538420011257E-05
    0.79043895973118188034E-06
    0.13992241885333480100E-05
    0.84719746267058490899E-05
    0.84867309877090430816E-05
   -0.73304913833610295082E-06
    0.74955755571957870323E-06
   -0.61786559423493016467E-06
   -0.61790772565343288490E-06
    0.74899200061827744685E-06
   -0.73265706031867367345E-06
   -0.73637828785143737315E-06
    0.82953563170807066310E-06
   -0.60741648152581599323E-06
   -0.60727859354400315213E-06
    0.82338906704598676229E-06
   -0.73640011848000802018E-06
    0.84520683056162423550E-05
    0.84513596570067192691E-05
   -0.73616185884135164479E-06
    0.75561402073628809977E-06
   -0.61777307479302812449E-06
   -0.61778132045337940198E-06
    0.75374776414413115102E-06
   -0.73226256265342217614E-06
   -0.73567866389704780882E-06
    0.82503076546404905719E-06
   -0.60293177305543834524E-06
    0.14958258578079779794E-05
    0.79945694461402775443E-06
    0.13973802597352330914E-05
    0.84634600013468892223E-05
    0.84756780201581278242E-05
   -0.72968642098808166928E-06
    0.73995434817555922648E-06
   -0.61844017969477669560E-06
   -0.61867259557338170571E-06
    0.74055493985662630346E-06
   -0.73303652645058325512E-06
   -0.73674355891048027523E-06
    0.85131929520260478793E-06
   -0.60239377420790922798E-06
   -0.60349503746152074463E-06
    0.85559403551556298763E-06
   -0.73669239659242757249E-06
    0.84346469913400934593E-05
    0.84177469245683983484E-05
   -0.72976679345107364773E-06
    0.73492748701832494255E-06
   -0.61875947304750580047E-06
   -0.61875930893425414766E-06
    0.73492745904662855280E-06
   -0.72976672507459309051E-06
   -0.73671441016145903166E-06
    0.86909264111738770900E-06
   -0.60056019674684191513E-06
   -0.60056024208126783836E-06
    0.86909300552610519047E-06
   -0.73671437803210713778E-06
    0.84117553532182751119E-05
    0.84117557298430064731E-05
   -0.72927312783992092016E-06
    0.71690139052169143721E-06
   -0.62025005793112818511E-06
   -0.61991878809352075463E-06
    0.71449935666028684436E-06
   -0.72239061687732264351E-06
   -0.73711183387257410695E-06
    0.93780074423838989788E-06
   -0.59217610347909977944E-06
   -0.58991111366533255508E-06
    0.91380037051972746098E-06
   -0.73731730420088974692E-06
    0.83431933288724383790E-05
    0.83723500168670716650E-05
   -0.72239066597413508724E-06
    0.71449927847196127933E-06
   -0.61991891244407870692E-06
   -0.62024993146894144752E-06
    0.71690145077995221224E-06
   -0.72927300675508642580E-06
   -0.73731735046103342540E-06
    0.91380008962408693587E-06
   -0.58991107679416846148E-06
   -0.59217607715750340378E-06
    0.93780111600323457235E-06
   -0.73711181743282874165E-06
    0.83723496117190987281E-05
    0.83431936976678544734E-05
   -0.71660294700594103044E-06
    0.67691965512867581417E-06
   -0.62274458478829685893E-06
   -0.62274447075432047158E-06
    0.67691971854135091812E-06
   -0.71660278377946828714E-06
   -0.73792857008442815959E-06
    0.10366459924416704291E-05
   -0.57157862343879834565E-06
   -0.57157856776085213928E-06
    0.10366463071534498708E-05
   -0.73792853609085119297E-06
    0.82506820167918161745E-05
    0.82506824040990746507E-05
   -0.73364484082568854207E-06
    0.75134400698321962224E-06
   -0.61826206710689292338E-06
   -0.61810736029248277910E-06
    0.75436061231510841562E-06
   -0.73639518519052699218E-06
    0.13970668820905383668E-05
    0.80874649254042943287E-06
    0.14960060695093120649E-05
   -0.60086821692935570245E-06
    0.83160934405804803742E-06
   -0.73673304327952265335E-06
    0.84626631204425386488E-05
    0.84622429313329746223E-05
   -0.73636846229631944335E-06
    0.75074499434273337470E-06
   -0.61868090699119063213E-06
   -0.61836315410010546969E-06
    0.75237306808675345041E-06
   -0.73441002837087503577E-06
    0.13986570832550322091E-05
    0.81633452912905682104E-06
    0.14967757976134623284E-05
   -0.60121270792097627084E-06
    0.82600882777629759919E-06
   -0.73709034120558761257E-06
    0.84502888094328107216E-05
    0.84702237776953030713E-05
   -0.73583379090344891739E-06
    0.73278839540547248855E-06
   -0.61955864728646981104E-06
   -0.61902074258946461285E-06
    0.72962762120381825788E-06
   -0.72423357852331964244E-06
   -0.73699462713572875770E-06
    0.89816273349644458570E-06
   -0.60037430221131519577E-06
   -0.59632554561729276297E-06
    0.86149823949823959881E-06
   -0.73728075861890102605E-06
    0.83745796279939289366E-05
    0.84270106678276060377E-05
   -0.73560115170096332207E-06
    0.72089925891085943252E-06
   -0.62022287407403785358E-06
   -0.61947976470898217078E-06
    0.72122797985963778474E-06
   -0.71766863827794483819E-06
   -0.73296309909609089697E-06
    0.93788367737916871589E-06
   -0.59901089745417180015E-06
   -0.59052775259755408928E-06
    0.85287452994777243279E-06
   -0.73785313768237853387E-06
    0.83306053872283707476E-05
    0.84342754648921033721E-05
   -0.73648014591211804347E-06
    0.74777603993724044180E-06
   -0.61895126743829270910E-06
   -0.61848893581475863890E-06
    0.75198457695519864819E-06
   -0.73197086458689347885E-06
    0.14019716402047154953E-05
    0.82031579775471422058E-06
    0.14980500415622183707E-05
   -0.60426525251579735724E-06
    0.80903857083929270510E-06
   -0.73739183502662568662E-06
    0.84416455634885990917E-05
    0.84865747102259046829E-05
   -0.73659342046208762615E-06
    0.74643438991731802773E-06
   -0.61903180546238225084E-06
   -0.61845947354507717747E-06
    0.75327508054795913902E-06
   -0.72954021881271345186E-06
    0.14060988798032909296E-05
    0.82008968674906464600E-06
    0.14988891618674842641E-05
   -0.60878583122925566616E-06
    0.78396609908120714851E-06
   -0.73759844999181006773E-06
    0.84387119446614034619E-05
    0.85080665563921086295E-05
   -0.73548952191976754708E-06
    0.71167897222574662263E-06
   -0.62050650737481220878E-06
   -0.61971512998271704304E-06
    0.71691100888623446156E-06
   -0.71151571454993457756E-06
   -0.72716520461137513220E-06
    0.96734377926920033403E-06
   -0.60005885056806031529E-06
   -0.58666748083988199314E-06
    0.82533006280745687394E-06
   -0.73838761975909015031E-06
    0.82975043312531445908E-05
    0.84558415543989526954E-05
   -0.73562134482651825631E-06
    0.70710279957990688084E-06
   -0.62042702085242282364E-06
   -0.61967352239204873028E-06
    0.71734376739844392410E-06
   -0.70697352684355382822E-06
   -0.72135472061718945172E-06
    0.98083016275214951509E-06
   -0.60333968056162620683E-06
   -0.58566171142568485556E-06
    0.78593265821275768692E-06
   -0.73876692191320844682E-06
    0.82824361972772605757E-05
    0.84864196802055503289E-05
   -0.73465064690441513285E-06
    0.69982634069962041383E-06
   -0.62219848202751655227E-06
   -0.62119579940406064111E-06
    0.69042035640522186427E-06
   -0.71001326704871184130E-06
   -0.73371646497951299579E-06
    0.10311962939455405186E-05
   -0.58361422478458453593E-06
   -0.57551952041376237341E-06
    0.94048274214632357386E-06
   -0.73840446048813807314E-06
    0.82454631854361947011E-05
    0.83480927692898666224E-05
   -0.73290650794207057124E-06
    0.67241770289108740610E-06
   -0.62299560468910063178E-06
   -0.62223399047906934309E-06
    0.67020657958013910787E-06
   -0.69529077377997644497E-06
   -0.72246653774829507893E-06
    0.11254625732542224706E-05
   -0.57805074524019945306E-06
   -0.56089352082010778049E-06
    0.92616628223326366257E-06
   -0.73957962468388600579E-06
    0.81400766142446979475E-05
    0.83558179559192176454E-05
   -0.71844196511913396723E-06
    0.63245746268456730816E-06
   -0.62680860019358868153E-06
   -0.62555582163048688897E-06
    0.62194046877916578185E-06
   -0.69067456827102320338E-06
   -0.73440083650280868388E-06
    0.12379406685383952847E-05
   -0.54782658664250864277E-06
   -0.53829639556559687526E-06
    0.11178597714729781110E-05
   -0.73965777041899469847E-06
    0.80398312340036364099E-05
    0.81731933952458028401E-05
   -0.71909098149152414083E-06
    0.58675465367645848538E-06
   -0.62474375722115335854E-06
   -0.62710657427241735814E-06
    0.57690829882767556014E-06
   -0.65908470335249832952E-06
   -0.70556892343547900923E-06
    0.14512946047002818350E-05
   -0.52902600446148464919E-06
   -0.50173954046587009680E-06
    0.10914096701614014641E-05
   -0.74200644706662902847E-06
    0.77911295308784722766E-05
    0.81775904676234430359E-05
   -0.73172988655626242996E-06
    0.65147131670344207470E-06
   -0.62242108647794904056E-06
   -0.62275500096803935305E-06
    0.65961967469842917775E-06
   -0.68238826057982909750E-06
   -0.70866229782139020454E-06
    0.11968390921250507071E-05
   -0.57796053917250632464E-06
   -0.55135461510684498330E-06
    0.87072986412428736640E-06
   -0.74073415843162298739E-06
    0.80616998630180886711E-05
    0.83939398820827159931E-05
   -0.73187564151867626087E-06
    0.64127389964004740336E-06
   -0.62121590512001723153E-06
   -0.62264624187306968437E-06
    0.65940395486777788094E-06
   -0.67365644606009157169E-06
   -0.69619062468904539701E-06
    0.12308241781307848196E-05
   -0.58317781459340891214E-06
   -0.54902095776952091535E-06
    0.79557336613911023647E-06
   -0.74158857057799861986E-06
    0.80262038774288475932E-05
    0.84488814492719802187E-05
   -0.71307861565246369096E-06
    0.54664037963252611665E-06
   -0.61705922243369789373E-06
   -0.62701498751117351701E-06
    0.55715839901945212159E-06
   -0.63415833777807320055E-06
   -0.67031955467173689118E-06
    0.16036718217456915441E-05
   -0.52574588254029753840E-06
   -0.48260775687087291887E-06
    0.96123297840040940327E-06
   -0.74350377810647108900E-06
    0.76269965807614596161E-05
    0.82511790373103231853E-05
   -0.71337627393709545176E-06
    0.52994516846589008988E-06
   -0.61042426302459480766E-06
   -0.62589094024738218941E-06
    0.55713508693732627553E-06
   -0.61825178646197821566E-06
   -0.64077839959793015314E-06
    0.16739056971153053179E-05
   -0.53610685287292697275E-06
   -0.48189879054512049269E-06
    0.81171248940643159060E-06
   -0.74451965411487065232E-06
    0.75607275242639860615E-05
    0.83511222492813869898E-05
   -0.73639520834149746358E-06
    0.75436063384315581913E-06
   -0.61810758287812523463E-06
   -0.61826181612991510954E-06
    0.75134399124595118498E-06
   -0.73364469327018929658E-06
   -0.73673308638990729599E-06
    0.83160905453478560965E-06
   -0.60086847778281973759E-06
    0.14960060748925852802E-05
    0.80874656283267828821E-06
    0.13970668800125132843E-05
    0.84622424339366457858E-05
    0.84626634364598755949E-05
   -0.72423372245840112450E-06
    0.72962751782261049458E-06
   -0.61902094383165821373E-06
   -0.61955852188280267758E-06
    0.73278840398615447225E-06
   -0.73583369819313045986E-06
   -0.73728082964201321285E-06
    0.86149781946198622979E-06
   -0.59632562382324656594E-06
   -0.60037437067058538853E-06
    0.89816306578616684513E-06
   -0.73699461458934894687E-06
    0.84270108514489160622E-05
    0.83745805849174071106E-05
   -0.73441006605099709861E-06
    0.75237305410496513739E-06
   -0.61836333703823323546E-06
   -0.61868068572255153128E-06
    0.75074499050950334784E-06
   -0.73636832208942309132E-06
   -0.73709039068972503555E-06
    0.82600854557360762706E-06
   -0.60121293020104693197E-06
    0.14967758388412331307E-05
    0.81633459477773458135E-06
    0.13986570417898810586E-05
    0.84702233194608530663E-05
    0.84502891499639503172E-05
   -0.71766872248881187753E-06
    0.72122789794244893393E-06
   -0.61947996235105005892E-06
   -0.62022268883518723214E-06
    0.72089923906990027785E-06
   -0.73560107573629617874E-06
   -0.73785317454133709446E-06
    0.85287412034526381414E-06
   -0.59052776704996174285E-06
   -0.59901097829124488305E-06
    0.93788402010732299427E-06
   -0.73296306541958790278E-06
    0.84342755932864484954E-05
    0.83306063024281155530E-05
   -0.71001331046101322530E-06
    0.69042035103614058014E-06
   -0.62119600932728083083E-06
   -0.62219841320836111846E-06
    0.69982632536773633354E-06
   -0.73465056392793344270E-06
   -0.73840453741889245610E-06
    0.94048244290627123441E-06
   -0.57551961272475890053E-06
   -0.58361424950112642725E-06
    0.10311966444435795853E-05
   -0.73371643296950147967E-06
    0.83480923686829440418E-05
    0.82454635591619591885E-05
   -0.69067463998238354113E-06
    0.62194049573852290964E-06
   -0.62555604210266154479E-06
   -0.62680849830190815537E-06
    0.63245748487015103616E-06
   -0.71844186116885410634E-06
   -0.73965781627344866461E-06
    0.11178594434797627139E-05
   -0.53829654037415344973E-06
   -0.54782660642808740692E-06
    0.12379409831736006187E-05
   -0.73440082319538184016E-06
    0.81731929733650379255E-05
    0.80398316959232150604E-05
   -0.69529087312727884131E-06
    0.67020655780198680370E-06
   -0.62223418578083199654E-06
   -0.62299549479657442008E-06
    0.67241774561590074532E-06
   -0.73290638842902937731E-06
   -0.73957961282266034633E-06
    0.92616601914837888991E-06
   -0.56089363399392464513E-06
   -0.57805075829137627798E-06
    0.11254629380967177004E-05
   -0.72246648833328507357E-06
    0.83558174881072847906E-05
    0.81400769920992127279E-05
   -0.65908475652209505837E-06
    0.57690829824756037638E-06
   -0.62710677153114735699E-06
   -0.62474364535440764613E-06
    0.58675468842839103769E-06
   -0.71909091261821047916E-06
   -0.74200647246573029160E-06
    0.10914093797392245799E-05
   -0.50173968059665386814E-06
   -0.52902596929240478162E-06
    0.14512948466880485924E-05
   -0.70556885648247628339E-06
    0.81775899546153737156E-05
    0.77911300390437035658E-05
   -0.73197091111536163080E-06
    0.75198456744127122156E-06
   -0.61848908542411436401E-06
   -0.61895105711869498138E-06
    0.74777601716536433052E-06
   -0.73648004148406099011E-06
   -0.73739189071542693785E-06
    0.80903829153018925355E-06
   -0.60426546973815117521E-06
    0.14980500676769761828E-05
    0.82031591940862176545E-06
    0.14019716464557695181E-05
    0.84865742815857507806E-05
    0.84416458955034576775E-05
   -0.71151583594898769629E-06
    0.71691087782544401992E-06
   -0.61971534326229988642E-06
   -0.62050644847671418760E-06
    0.71167898691140999746E-06
   -0.73548943236677647066E-06
   -0.73838762751301853194E-06
    0.82532966377116588813E-06
   -0.58666749358138611364E-06
   -0.60005890968385798001E-06
    0.96734414925903706908E-06
   -0.72716515673606276072E-06
    0.84558417108332461115E-05
    0.82975052558709708097E-05
   -0.72954026977302760218E-06
    0.75327507805250065591E-06
   -0.61845968810573022621E-06
   -0.61903163565497776225E-06
    0.74643442817557988762E-06
   -0.73659332098407332884E-06
   -0.73759841914160540265E-06
    0.78396580282955480961E-06
   -0.60878605884395698152E-06
    0.14988891672975770138E-05
    0.82008984232936811570E-06
    0.14060988434186446673E-05
    0.85080661042644070322E-05
    0.84387122369781419038E-05
   -0.70697363130232207279E-06
    0.71734360923480315005E-06
   -0.61967370643366264413E-06
   -0.62042696877811614032E-06
    0.70710279866661382837E-06
   -0.73562122354997701846E-06
   -0.73876694398279810659E-06
    0.78593226198019371976E-06
   -0.58566177576907235042E-06
   -0.60333970394125258706E-06
    0.98083055887321864128E-06
   -0.72135467692339223194E-06
    0.84864197966767242616E-05
    0.82824370575338964671E-05
   -0.68238834163868049934E-06
    0.65961959563594115307E-06
   -0.62275520317206946461E-06
   -0.62242100536590894594E-06
    0.65147133785006154234E-06
   -0.73172971057610216188E-06
   -0.74073417680486219166E-06
    0.87072963873426631213E-06
   -0.55135467520985181888E-06
   -0.57796054629166334516E-06
    0.11968394343985779447E-05
   -0.70866223568885060510E-06
    0.83939393797626811960E-05
    0.80617002453299584823E-05
   -0.63415844326692996486E-06
    0.55715838005368975967E-06
   -0.62701520007631466844E-06
   -0.61705913251131458434E-06
    0.54664042224525582112E-06
   -0.71307849710786184129E-06
   -0.74350378979960062486E-06
    0.96123282096351463940E-06
   -0.48260788724405397827E-06
   -0.52574579470541464554E-06
    0.16036722061320841684E-05
   -0.67031947049696393742E-06