# vtk DataFile Version 3.0
LAPLACIEN  2D
ASCII
DATASET UNSTRUCTURED_GRID
 POINTS        1857  float
   3.1250000000000000E-002  0.93750000000000000        0.0000000000000000     
   6.2500000000000000E-002  0.93750000000000000        0.0000000000000000     
   6.2500000000000000E-002  0.96875000000000000        0.0000000000000000     
   1.8749999999999999E-002  0.95625000000000004        0.0000000000000000     
   4.0625000000000001E-002  0.95937499999999998        0.0000000000000000     
   4.3749999999999997E-002  0.98124999999999996        0.0000000000000000     
   2.1874999999999999E-002  0.97812500000000002        0.0000000000000000     
   9.3750000000000000E-002  0.93750000000000000        0.0000000000000000     
  0.12500000000000000       0.93750000000000000        0.0000000000000000     
  0.12500000000000000       0.96875000000000000        0.0000000000000000     
   8.1250000000000003E-002  0.95625000000000004        0.0000000000000000     
  0.10312499999999999       0.95937499999999998        0.0000000000000000     
  0.10625000000000000       0.98124999999999996        0.0000000000000000     
   8.4375000000000006E-002  0.97812500000000002        0.0000000000000000     
   3.1250000000000000E-002  0.87500000000000000        0.0000000000000000     
   6.2500000000000000E-002  0.87500000000000000        0.0000000000000000     
   6.2500000000000000E-002  0.90625000000000000        0.0000000000000000     
   1.8749999999999999E-002  0.89375000000000004        0.0000000000000000     
   4.0625000000000001E-002  0.89687499999999998        0.0000000000000000     
   4.3749999999999997E-002  0.91874999999999996        0.0000000000000000     
   2.1874999999999999E-002  0.91562500000000002        0.0000000000000000     
   9.3750000000000000E-002  0.87500000000000000        0.0000000000000000     
  0.12500000000000000       0.87500000000000000        0.0000000000000000     
  0.12500000000000000       0.90625000000000000        0.0000000000000000     
   8.1250000000000003E-002  0.89375000000000004        0.0000000000000000     
  0.10312499999999999       0.89687499999999998        0.0000000000000000     
  0.10625000000000000       0.91874999999999996        0.0000000000000000     
   8.4375000000000006E-002  0.91562500000000002        0.0000000000000000     
  0.15625000000000000       0.93750000000000000        0.0000000000000000     
  0.18750000000000000       0.93750000000000000        0.0000000000000000     
  0.18750000000000000       0.96875000000000000        0.0000000000000000     
  0.14374999999999999       0.95625000000000004        0.0000000000000000     
  0.16562499999999999       0.95937499999999998        0.0000000000000000     
  0.16875000000000001       0.98124999999999996        0.0000000000000000     
  0.14687500000000001       0.97812500000000002        0.0000000000000000     
  0.21875000000000000       0.93750000000000000        0.0000000000000000     
  0.25000000000000000       0.93750000000000000        0.0000000000000000     
  0.25000000000000000       0.96875000000000000        0.0000000000000000     
  0.20624999999999999       0.95625000000000004        0.0000000000000000     
  0.22812499999999999       0.95937499999999998        0.0000000000000000     
  0.23125000000000001       0.98124999999999996        0.0000000000000000     
  0.20937500000000001       0.97812500000000002        0.0000000000000000     
  0.15625000000000000       0.87500000000000000        0.0000000000000000     
  0.18750000000000000       0.87500000000000000        0.0000000000000000     
  0.18750000000000000       0.90625000000000000        0.0000000000000000     
  0.14374999999999999       0.89375000000000004        0.0000000000000000     
  0.16562499999999999       0.89687499999999998        0.0000000000000000     
  0.16875000000000001       0.91874999999999996        0.0000000000000000     
  0.14687500000000001       0.91562500000000002        0.0000000000000000     
  0.21875000000000000       0.87500000000000000        0.0000000000000000     
  0.25000000000000000       0.87500000000000000        0.0000000000000000     
  0.25000000000000000       0.90625000000000000        0.0000000000000000     
  0.20624999999999999       0.89375000000000004        0.0000000000000000     
  0.22812499999999999       0.89687499999999998        0.0000000000000000     
  0.23125000000000001       0.91874999999999996        0.0000000000000000     
  0.20937500000000001       0.91562500000000002        0.0000000000000000     
   3.1250000000000000E-002  0.81250000000000000        0.0000000000000000     
   6.2500000000000000E-002  0.81250000000000000        0.0000000000000000     
   6.2500000000000000E-002  0.84375000000000000        0.0000000000000000     
   1.8749999999999999E-002  0.83125000000000004        0.0000000000000000     
   4.0625000000000001E-002  0.83437499999999998        0.0000000000000000     
   4.3749999999999997E-002  0.85624999999999996        0.0000000000000000     
   2.1874999999999999E-002  0.85312500000000002        0.0000000000000000     
   9.3750000000000000E-002  0.81250000000000000        0.0000000000000000     
  0.12500000000000000       0.81250000000000000        0.0000000000000000     
  0.12500000000000000       0.84375000000000000        0.0000000000000000     
   8.1250000000000003E-002  0.83125000000000004        0.0000000000000000     
  0.10312499999999999       0.83437499999999998        0.0000000000000000     
  0.10625000000000000       0.85624999999999996        0.0000000000000000     
   8.4375000000000006E-002  0.85312500000000002        0.0000000000000000     
   3.1250000000000000E-002  0.75000000000000000        0.0000000000000000     
   6.2500000000000000E-002  0.75000000000000000        0.0000000000000000     
   6.2500000000000000E-002  0.78125000000000000        0.0000000000000000     
   1.8749999999999999E-002  0.76875000000000004        0.0000000000000000     
   4.0625000000000001E-002  0.77187499999999998        0.0000000000000000     
   4.3749999999999997E-002  0.79374999999999996        0.0000000000000000     
   2.1874999999999999E-002  0.79062500000000002        0.0000000000000000     
   9.3750000000000000E-002  0.75000000000000000        0.0000000000000000     
  0.12500000000000000       0.75000000000000000        0.0000000000000000     
  0.12500000000000000       0.78125000000000000        0.0000000000000000     
   8.1250000000000003E-002  0.76875000000000004        0.0000000000000000     
  0.10312499999999999       0.77187499999999998        0.0000000000000000     
  0.10625000000000000       0.79374999999999996        0.0000000000000000     
   8.4375000000000006E-002  0.79062500000000002        0.0000000000000000     
  0.15625000000000000       0.81250000000000000        0.0000000000000000     
  0.18750000000000000       0.81250000000000000        0.0000000000000000     
  0.18750000000000000       0.84375000000000000        0.0000000000000000     
  0.14374999999999999       0.83125000000000004        0.0000000000000000     
  0.16562499999999999       0.83437499999999998        0.0000000000000000     
  0.16875000000000001       0.85624999999999996        0.0000000000000000     
  0.14687500000000001       0.85312500000000002        0.0000000000000000     
  0.21875000000000000       0.81250000000000000        0.0000000000000000     
  0.25000000000000000       0.81250000000000000        0.0000000000000000     
  0.25000000000000000       0.84375000000000000        0.0000000000000000     
  0.20624999999999999       0.83125000000000004        0.0000000000000000     
  0.22812499999999999       0.83437499999999998        0.0000000000000000     
  0.23125000000000001       0.85624999999999996        0.0000000000000000     
  0.20937500000000001       0.85312500000000002        0.0000000000000000     
  0.15625000000000000       0.75000000000000000        0.0000000000000000     
  0.18750000000000000       0.75000000000000000        0.0000000000000000     
  0.18750000000000000       0.78125000000000000        0.0000000000000000     
  0.14374999999999999       0.76875000000000004        0.0000000000000000     
  0.16562499999999999       0.77187499999999998        0.0000000000000000     
  0.16875000000000001       0.79374999999999996        0.0000000000000000     
  0.14687500000000001       0.79062500000000002        0.0000000000000000     
  0.21875000000000000       0.75000000000000000        0.0000000000000000     
  0.25000000000000000       0.75000000000000000        0.0000000000000000     
  0.25000000000000000       0.78125000000000000        0.0000000000000000     
  0.20624999999999999       0.76875000000000004        0.0000000000000000     
  0.22812499999999999       0.77187499999999998        0.0000000000000000     
  0.23125000000000001       0.79374999999999996        0.0000000000000000     
  0.20937500000000001       0.79062500000000002        0.0000000000000000     
  0.28125000000000000       0.93750000000000000        0.0000000000000000     
  0.31250000000000000       0.93750000000000000        0.0000000000000000     
  0.31250000000000000       0.96875000000000000        0.0000000000000000     
  0.26874999999999999       0.95625000000000004        0.0000000000000000     
  0.29062500000000002       0.95937499999999998        0.0000000000000000     
  0.29375000000000001       0.98124999999999996        0.0000000000000000     
  0.27187499999999998       0.97812500000000002        0.0000000000000000     
  0.34375000000000000       0.93750000000000000        0.0000000000000000     
  0.37500000000000000       0.93750000000000000        0.0000000000000000     
  0.37500000000000000       0.96875000000000000        0.0000000000000000     
  0.33124999999999999       0.95625000000000004        0.0000000000000000     
  0.35312500000000002       0.95937499999999998        0.0000000000000000     
  0.35625000000000001       0.98124999999999996        0.0000000000000000     
[...]
 CELL_DATA        3584
 SCALARS Tumor_cells float
 LOOKUP_TABLE default
   -0.55387657474983511620E-06
    0.57076909189095976459E-06
   -0.48946292027659045080E-06
   -0.48946281874621108714E-06
    0.57076904844163552339E-06
   -0.55387655091939493156E-06
    0.10384109563741990582E-05
    0.57701370016853475910E-06
    0.11074236114485013738E-05
    0.11074236311695326275E-05
    0.57701368514077690561E-06
    0.10384109039332134002E-05
    0.60382126655523024814E-05
    0.60382128776358050289E-05
   -0.55282630411178499692E-06
    0.56857950750643055506E-06
   -0.48954004412111430527E-06
   -0.48954440972494297557E-06
    0.56862858044523277146E-06
   -0.55392737855532644925E-06
    0.10366608040340757894E-05
    0.58001080812606188509E-06
    0.11068847465844174561E-05
   -0.48611695390038276105E-06
    0.58599556850032732352E-06
   -0.55382388282502154416E-06
    0.60356309286141427537E-05
    0.60304911957993632472E-05
   -0.55392744999982725703E-06
    0.56862857401057144007E-06
   -0.48954441459554960541E-06
   -0.48953993899266974239E-06
    0.56857957049471165925E-06
   -0.55282620625920543193E-06
   -0.55382392572124195290E-06
    0.58599538623751129214E-06
   -0.48611700467229454929E-06
    0.11068847752186341122E-05
    0.58001084219948017732E-06
    0.10366607726338213750E-05
    0.60304906105827719417E-05
    0.60356307286466155773E-05
   -0.55308524191045261332E-06
    0.56576806438522701905E-06
   -0.48965970212330849838E-06
   -0.48965967719194126395E-06
    0.56576810059942833536E-06
   -0.55308512288838030299E-06
   -0.55400244658644780377E-06
    0.59082249531560944295E-06
   -0.48612795368027996516E-06
   -0.48612800835538712522E-06
    0.59082277303055146564E-06
   -0.55400240713167143775E-06
    0.60244695983182596307E-05
    0.60244697764273765430E-05
   -0.55205240333496638386E-06
    0.56613327716266069017E-06
   -0.48967576346688922989E-06
   -0.48968163861280857845E-06
    0.56660737752055730987E-06
   -0.55402345556427415232E-06
    0.10351352566243927060E-05
    0.58401931376803146196E-06
    0.11064996098418328792E-05
   -0.48364882627780573281E-06
    0.59493682039305416231E-06
   -0.55349656355564249550E-06
    0.60314900166375726821E-05
    0.60238305312970846659E-05
   -0.55196234549174578190E-06
    0.56395616098053171466E-06
   -0.48985958602849207154E-06
   -0.48986267323570838669E-06
    0.56503388021464001880E-06
   -0.55416163488516137291E-06
    0.10341151390801667389E-05
    0.58881387341604184146E-06
    0.11063128605036482884E-05
   -0.48159739281006412844E-06
    0.60230537562798414189E-06
   -0.55373251661732152013E-06
    0.60257646970095749914E-05
    0.60194134763403298865E-05
   -0.55223106934017195443E-06
    0.56126011217465011429E-06
   -0.48986882688478209035E-06
   -0.48986635687474743672E-06
    0.56158151172909335549E-06
   -0.55243216441139267182E-06
   -0.55413360364311129376E-06
    0.60134668788351679460E-06
   -0.48403402381498514709E-06
   -0.48411668802690348660E-06
    0.60463986025102346970E-06
   -0.55412197607946324054E-06
    0.60131499241466031033E-05
    0.60135142657079997675E-05
   -0.55258442210901540575E-06
    0.55647689129696172000E-06
   -0.49016815142701341348E-06
   -0.49015018656690900515E-06
    0.55613319638862410670E-06
   -0.55058677548161325569E-06
   -0.55430271469520369962E-06
    0.61843520755953366132E-06
   -0.48191492069572185224E-06
   -0.48128642199351049153E-06
    0.61615479237233740681E-06
   -0.55432805825255511318E-06
    0.59957411826546960440E-05
    0.60044956537030187853E-05
   -0.55402351218601792633E-06
    0.56660730956603373274E-06
   -0.48968169984023227562E-06
   -0.48967562104211969119E-06
    0.56613330039203771924E-06
   -0.55205233494768732123E-06
   -0.55349653120084473589E-06
    0.59493666599619166871E-06
   -0.48364888006536964200E-06
    0.11064995677224855729E-05
    0.58401932933352415861E-06
    0.10351352667905238553E-05
    0.60238302704999651565E-05
    0.60314901622121117386E-05
   -0.55243227153238779895E-06
    0.56158144861958171952E-06
   -0.48986638533184442136E-06
   -0.48986874541569759732E-06
    0.56126013847567110674E-06
   -0.55223097839022513052E-06
   -0.55412202715081059888E-06
    0.60463960470466691783E-06
   -0.48411665181551823721E-06
   -0.48403404857363505791E-06
    0.60134686874674270014E-06
   -0.55413358069696302401E-06
    0.60135144695233545248E-05
    0.60131505420102209704E-05
   -0.55416165638268689709E-06
    0.56503392342633901341E-06
   -0.48986272880189611310E-06
   -0.48985950156654752597E-06
    0.56395614988099143330E-06
   -0.55196225903049113741E-06
   -0.55373256066061078081E-06
    0.60230523512349059890E-06
   -0.48159740649386339188E-06
    0.11063128716188436445E-05
    0.58881385012084452904E-06
    0.10341151215670454469E-05
    0.60194132339817259638E-05
    0.60257648415351611516E-05
   -0.55058686358409164428E-06
    0.55613308787492470220E-06
   -0.49015020488837363816E-06
   -0.49016806875187841152E-06
    0.55647689917820561223E-06
   -0.55258432433293720959E-06
   -0.55432810530531887178E-06
    0.61615456955391642721E-06
   -0.48128640194593511943E-06
   -0.48191494604022887730E-06
    0.61843537066875555126E-06
   -0.55430271163246480536E-06
    0.60044958812723698508E-05
    0.59957417699192198924E-05
   -0.55072523483711422282E-06
    0.55328406521171711994E-06
   -0.49022371584108066941E-06
   -0.49022365677517112770E-06
    0.55328401426669191431E-06
   -0.55072518240017410005E-06
   -0.55431704924552757980E-06
    0.62560115007676027592E-06
   -0.48026415565732104392E-06
   -0.48026419721229103870E-06
    0.62560135192827920351E-06
   -0.55431703132100354994E-06
    0.59926422135824407585E-05
    0.59926424249517369833E-05
   -0.55073956027425435157E-06
    0.54310427247484822990E-06
   -0.49078558047126236760E-06
   -0.49075588282844965259E-06
    0.54172701173047812114E-06
   -0.54668630822249298454E-06
   -0.55455868196698519099E-06
    0.66205080944616438652E-06
   -0.47564639569413894730E-06
   -0.47433261030232996554E-06
    0.64924095745153503925E-06
   -0.55465916302031200840E-06
    0.59572440628309175802E-05
    0.59723432620942586699E-05
   -0.54668632744906356718E-06
    0.54172698407956295527E-06
   -0.49075594533002403710E-06
   -0.49078553295090074085E-06
    0.54310430458688338221E-06
   -0.55073949303308964065E-06
   -0.55465919504619268679E-06
    0.64924082203822365826E-06
   -0.47433256014223213974E-06
   -0.47564638734873021145E-06
    0.66205100298625637544E-06
   -0.55455868857939755104E-06
    0.59723430530084590858E-05
    0.59572442682366842691E-05
   -0.54396302847704983687E-06
    0.52058910788490021178E-06
   -0.49185067522920903504E-06
   -0.49185060781497156431E-06
    0.52058915680494471447E-06
   -0.54396290835292487584E-06
   -0.55505253803475607020E-06
    0.71428795613789931557E-06
   -0.46443931812778991132E-06
   -0.46443930176953112725E-06
    0.71428812752085358984E-06
   -0.55505249244851413389E-06
    0.59099444056659313580E-05
    0.59099446066612999816E-05
   -0.55281416826093238066E-06
    0.56259231419839691440E-06
   -0.49006790663820472428E-06
   -0.49005992923490890729E-06
    0.56430651043776456826E-06
   -0.55429198302356039592E-06
    0.10339394440248609471E-05
    0.59373629249360619086E-06
    0.11064056887170466302E-05
   -0.48043228887559670755E-06
    0.60578872676297356738E-06
   -0.55432039412106864568E-06
    0.60190235239164745963E-05
    0.60187820528161971220E-05
   -0.55443222869636013692E-06
    0.56227024904012307216E-06
   -0.49024726992163127677E-06
   -0.49024037205249211467E-06
    0.56318080587737313771E-06
   -0.55314752284203477546E-06
    0.10348137402090486851E-05
    0.59772950061645774673E-06
    0.11068228670948706330E-05
   -0.48062939087419697018E-06
    0.60275333832776120493E-06
   -0.55451713742389282983E-06
    0.60126234607482746371E-05
    0.60229243528923972792E-05
   -0.55437468527955444445E-06
    0.55211155304772602578E-06
   -0.49049890586343018479E-06
   -0.49047464325041833423E-06
    0.55028533645711425558E-06
   -0.54753082704997024771E-06
   -0.55448103915909151123E-06
    0.64102988592277905039E-06
   -0.48020427642896493212E-06
   -0.47786954318856929389E-06
    0.62144161998254104786E-06
   -0.55462279471412759811E-06
    0.59734229331949263434E-05
    0.60005880380597596604E-05
   -0.55449853588901965747E-06
    0.54551763651709808117E-06
   -0.49073021626492600881E-06
   -0.49077627597774933991E-06
    0.54555567677560970730E-06
   -0.54380632801572597848E-06
   -0.55229115803718061326E-06
    0.66197304739681665133E-06
   -0.47950501634619402196E-06
   -0.47459204097727363827E-06
    0.61664384500887104840E-06
   -0.55493661201249152256E-06
    0.59507876328520269252E-05
    0.60044587524047463763E-05
   -0.55456715535945476154E-06
    0.56065224042452037346E-06
   -0.49036302510470271507E-06
   -0.49036905756381793584E-06
    0.56296371875475680130E-06
   -0.55172646837697278436E-06
    0.10366393613566465130E-05
    0.59978533220831156081E-06
    0.11075202656444897031E-05
   -0.48235580103444671331E-06
    0.59365745698390645022E-06
   -0.55468423204575792440E-06
    0.60081673141646066029E-05
    0.60314110290249320524E-05
   -0.55466951051458363180E-06
    0.55996047767386630175E-06
   -0.49039853506102584208E-06
   -0.49042083131456237779E-06
    0.56369680453408259473E-06
   -0.55030279762647872909E-06
    0.10389136040710085992E-05
    0.59961182298595550807E-06
    0.11079799466559504821E-05
   -0.48491258563907590238E-06
    0.58026446789654502779E-06
   -0.55479761940396399877E-06
    0.60066662193068740894E-05
    0.60425599738641344694E-05
   -0.55464263090670420160E-06
    0.54049774657953933904E-06
   -0.49081516300104118914E-06
   -0.49098947753202487492E-06
    0.54316120332367661830E-06
   -0.54028475874061153510E-06
   -0.54913972649772097150E-06
    0.67734431163958247859E-06
   -0.48015755450013288082E-06
   -0.47238024829531586490E-06
    0.60173561870334071613E-06
   -0.55522119385963034332E-06
    0.59338949786638826633E-05
    0.60157499624554975059E-05
   -0.55481287662707636449E-06
    0.53809831156430636779E-06
   -0.49077160866513447770E-06
   -0.49107207255117637067E-06
    0.54343872184587687335E-06
   -0.53765792663270587679E-06
   -0.54597974343574735489E-06
    0.68424425853090731292E-06
   -0.48203189260695169227E-06
   -0.47175345736004032009E-06
    0.58060396985320463668E-06
   -0.55541521231074910018E-06
    0.59263170223601724197E-05
    0.60316399960274030140E-05
   -0.55432563092217783707E-06
    0.53358682827279843223E-06
   -0.49147900452207769505E-06
   -0.49141545840919889425E-06
    0.52818539102440664891E-06
   -0.53976435041055111320E-06
   -0.55277080604971078021E-06
    0.71136798599134247282E-06
   -0.47108794007473044479E-06
   -0.46635818514966604543E-06
    0.66310828800670209212E-06
   -0.55524256488753575754E-06
    0.59070484112398499829E-05
    0.59601612162891305066E-05
   -0.55413855390129896295E-06
    0.51854902308358113237E-06
   -0.49170997264436480806E-06
   -0.49204819353187784708E-06
    0.51700535357150077892E-06
   -0.53144220593496979450E-06
   -0.54680729197215705541E-06
    0.76047149049079257973E-06
   -0.46833849982220305477E-06
   -0.45823806352882682969E-06
    0.65482215436440825298E-06
   -0.55588373069343739558E-06
    0.58535730320142155011E-05
    0.59649304298260921804E-05
   -0.54662859160955735024E-06
    0.49566129127456059867E-06
   -0.49343438524584900029E-06
   -0.49333306622379911687E-06
    0.48960233263465238503E-06
   -0.52949260917260503857E-06
   -0.55334200858446012719E-06
    0.82057953584810223422E-06
   -0.45229488336651424029E-06
   -0.44658187877287727975E-06
    0.75711771095070416571E-06
   -0.55607243899032215454E-06
    0.58021772795074815415E-05
    0.58716302852847456801E-05
   -0.55018329086559746475E-06
    0.46977395802479483969E-06
   -0.49269427143451131352E-06
   -0.49465228128592816214E-06
    0.46447558601386255768E-06
   -0.51136306271675910562E-06
   -0.53855600058297685330E-06
    0.93196836504376772595E-06
   -0.44362105505523767877E-06
   -0.42676591342082179721E-06
    0.74182659193928408772E-06
   -0.55763090436986577210E-06
    0.56753547296009066760E-05
    0.58784347760372392320E-05
   -0.55415092536398158776E-06
    0.50740438419943986166E-06
   -0.49146846927680332414E-06
   -0.49248734848855378069E-06
    0.51139754333773423859E-06
   -0.52414091144253686600E-06
   -0.53958898967543811602E-06
    0.79668879362429921292E-06
   -0.46861963098559695411E-06
   -0.45286729056521160704E-06
    0.62454646172035916098E-06
   -0.55649175260990038741E-06
    0.58148420210907609241E-05
    0.59854212441401084515E-05
   -0.55451448185175913565E-06
    0.50226512978178903945E-06
   -0.49103380757255040154E-06
   -0.49264210561272087878E-06
    0.51147463776128653061E-06
   -0.51918245697041455523E-06
   -0.53310966014998245443E-06
    0.81316270428786014881E-06
   -0.47163960515284783965E-06
   -0.45139953229837003092E-06
    0.58449062343844855091E-06
   -0.55691844440800487208E-06
    0.57980626102546936132E-05
    0.60138869790380745746E-05
   -0.54898782566328232402E-06
    0.44740201154232569408E-06
   -0.48990818311669784408E-06
   -0.49532183329441747855E-06
    0.45403874378492219267E-06
   -0.49709214793108155742E-06
   -0.52104554539974355072E-06
    0.10086498603920292852E-05
   -0.44333322627897595511E-06
   -0.41588450684833899538E-06
    0.67008675797587489275E-06
   -0.55885733672087320054E-06
    0.55943661218879746992E-05
    0.59216180993465176730E-05
   -0.54968734790846438776E-06
    0.43839586753496657824E-06
   -0.48751608298651364005E-06
   -0.49538055446995561490E-06
    0.45430476600163087145E-06
   -0.48809256235028460024E-06
   -0.50678820672975981064E-06
    0.10418740893657685810E-05
   -0.44937532750324552157E-06
   -0.41466745036520816271E-06
    0.59080198452230128757E-06
   -0.55964103301589000950E-06
    0.55633349106000622386E-05
    0.59746909820585615837E-05
   -0.55429200420232275220E-06
    0.56430654547827584587E-06
   -0.49006005494700148916E-06
   -0.49006774684878309908E-06
    0.56259231327696652229E-06
   -0.55281406235257831406E-06
   -0.55432042168603590780E-06
    0.60578859887302015297E-06
   -0.48043242476585053004E-06
    0.11064056905278501820E-05
    0.59373629957656907003E-06
    0.10339394476837023485E-05
    0.60187817628076014384E-05
    0.60190237059438312444E-05
   -0.54753090856337658675E-06
    0.55028527119799785326E-06
   -0.49047473378716099301E-06
   -0.49049884987412334909E-06
    0.55211155974353915564E-06
   -0.55437460807127172802E-06
   -0.55462284283135999086E-06
    0.62144139531512655374E-06
   -0.47786957964036716354E-06
   -0.48020434481638333167E-06
    0.64103008106849705913E-06
   -0.55448104721166825172E-06
    0.60005882357814975618E-05
    0.59734235524706184373E-05
   -0.55314755148045239734E-06
    0.56318082090816453382E-06
   -0.49024045838626523010E-06
   -0.49024716071094117662E-06
    0.56227023413213260692E-06
   -0.55443212038242710028E-06
   -0.55451717834449295711E-06
    0.60275321285703161430E-06
   -0.48062951209098289235E-06
    0.11068228966176517440E-05
    0.59772949349415145771E-06
    0.10348137126118108442E-05
    0.60229241057680725930E-05
    0.60126236573012290440E-05
   -0.54380639238656930517E-06
    0.54555561935291475475E-06
   -0.49077638554228321861E-06
   -0.49073010525416066443E-06
    0.54551759997152847618E-06
   -0.55449851263266865244E-06
   -0.55493664608855975736E-06
    0.61664361000898973347E-06
   -0.47459202976612077835E-06
   -0.47950510253810108307E-06
    0.66197323565950120260E-06
   -0.55229113763762377043E-06
    0.60044589301115878602E-05
    0.59507882257523031229E-05
   -0.53976437078770382871E-06
    0.52818540561286960491E-06
   -0.49141556855894497747E-06
   -0.49147900545409663427E-06
    0.53358679162683752942E-06
   -0.55432556535415645982E-06
   -0.55524262353977907765E-06
    0.66310814626388248502E-06
   -0.46635824182534427177E-06
   -0.47108796861520776457E-06
    0.71136817410030748482E-06
   -0.55277078772598912203E-06
    0.59601610165694019719E-05
    0.59070486055933469699E-05
   -0.52949264899793640203E-06
    0.48960237018391442203E-06
   -0.49333319697161395499E-06
   -0.49343434911018362594E-06
    0.49566128753998735791E-06
   -0.54662850092948104668E-06
   -0.55607248287778869315E-06
    0.75711755418068945264E-06
   -0.44658195355363556715E-06
   -0.45229493211644223404E-06
    0.82057971351780121746E-06
   -0.55334201703084673117E-06
    0.58716300671839829087E-05
    0.58021775123233275772E-05
   -0.53144227081725066183E-06
    0.51700534506762393123E-06
   -0.49204830969344133223E-06
   -0.49170991894618278007E-06
    0.51854904772211139512E-06
   -0.55413846913765684579E-06
   -0.55588371615704017841E-06
    0.65482203651962820071E-06
   -0.45823812272505090803E-06
   -0.46833853183438652219E-06
    0.76047167718134417035E-06
   -0.54680726944840950515E-06
    0.59649301863609684610E-05
    0.58535732368700646837E-05
   -0.51136307921663841034E-06
    0.46447559847414210469E-06
   -0.49465240514993546056E-06
   -0.49269422000237122422E-06
    0.46977394216174984483E-06
   -0.55018325932116936067E-06
   -0.55763095001200711837E-06
    0.74182647263095900457E-06
   -0.42676596661392649614E-06
   -0.44362107313374779858E-06
    0.93196853739867028434E-06
   -0.53855595451222942418E-06
    0.58784345311368258068E-05
    0.56753549559165244657E-05
   -0.55172650174273644789E-06
    0.56296372597422931019E-06
   -0.49036911306029061551E-06
   -0.49036293075449490798E-06
    0.56065219620180549999E-06
   -0.55456707871764915138E-06
   -0.55468427572820320863E-06
    0.59365734067431495782E-06
   -0.48235591577459489230E-06
    0.11075202878805208076E-05
    0.59978536903858005669E-06
    0.10366393711077757757E-05
    0.60314107982307740908E-05
    0.60081674830908080940E-05
   -0.54028483472724393681E-06
    0.54316112080793045300E-06
   -0.49098958802736283583E-06
   -0.49081514821522029758E-06
    0.54049775938915136712E-06
   -0.55464256598516960403E-06
   -0.55522120211910282211E-06
    0.60173536254053116118E-06
   -0.47238025502411161070E-06
   -0.48015761357344051417E-06
    0.67734451245675125193E-06
   -0.54913968512004386643E-06
    0.60157501666543972520E-05
    0.59338955816486112585E-05
   -0.55030284597492136442E-06
    0.56369679580181083022E-06
   -0.49042094458394636997E-06
   -0.49039846961398829827E-06
    0.55996049347223980170E-06
   -0.55466946130522623801E-06
   -0.55479758629208935557E-06
    0.58026433641177076209E-06
   -0.48491269997432306259E-06
    0.11079799571642448256E-05
    0.59961186096295859552E-06
    0.10389135913825793514E-05
    0.60425597466041435532E-05
    0.60066663818130876126E-05
   -0.53765800462611200824E-06
    0.54343862569092719988E-06
   -0.49107217057641481398E-06
   -0.49077160267767308465E-06
    0.53809830064941079860E-06
   -0.55481279700031817789E-06
   -0.55541522925506775699E-06
    0.58060371486087285386E-06
   -0.47175350442397331983E-06
   -0.48203193021760318327E-06
    0.68424447593203918698E-06
   -0.54597968646730759574E-06
    0.60316401816935318882E-05
    0.59263175840956068937E-05
   -0.52414096143513863810E-06
    0.51139749847435339584E-06
   -0.49248744615814331236E-06
   -0.49146843567793312303E-06
    0.50740438812658858408E-06
   -0.55415080950864973568E-06
   -0.55649177613048903781E-06
    0.62454636015633204877E-06
   -0.45286728845174931304E-06
   -0.46861969522333863520E-06
    0.79668896091633708541E-06
   -0.53958893363880119681E-06
    0.59854209767885743044E-05
    0.58148422104576089322E-05
   -0.49709223273642670646E-06
    0.45403873731592691015E-06
   -0.49532196515759344316E-06
   -0.48990814834298701590E-06
    0.44740201201323614927E-06
   -0.54898775165200127079E-06
   -0.55885734146955833146E-06
    0.67008663431108042616E-06
   -0.41588457196523586594E-06
   -0.44333322475940154765E-06
    0.10086501036759398347E-05
   -0.52104548947415858013E-06