# vtk DataFile Version 3.0
LAPLACIEN  2D
ASCII
DATASET UNSTRUCTURED_GRID
 POINTS        1857  float
   3.1250000000000000E-002  0.93750000000000000        0.0000000000000000     
   6.2500000000000000E-002  0.93750000000000000        0.0000000000000000     
   6.2500000000000000E-002  0.96875000000000000        0.0000000000000000     
   1.8749999999999999E-002  0.95625000000000004        0.0000000000000000     
   4.0625000000000001E-002  0.95937499999999998        0.0000000000000000     
   4.3749999999999997E-002  0.98124999999999996        0.0000000000000000     
   2.1874999999999999E-002  0.97812500000000002        0.0000000000000000     
   9.3750000000000000E-002  0.93750000000000000        0.0000000000000000     
  0.12500000000000000       0.93750000000000000        0.0000000000000000     
  0.12500000000000000       0.96875000000000000        0.0000000000000000     
   8.1250000000000003E-002  0.95625000000000004        0.0000000000000000     
  0.10312499999999999       0.95937499999999998        0.0000000000000000     
  0.10625000000000000       0.98124999999999996        0.0000000000000000     
   8.4375000000000006E-002  0.97812500000000002        0.0000000000000000     
   3.1250000000000000E-002  0.87500000000000000        0.0000000000000000     
   6.2500000000000000E-002  0.87500000000000000        0.0000000000000000     
   6.2500000000000000E-002  0.90625000000000000        0.0000000000000000     
   1.8749999999999999E-002  0.89375000000000004        0.0000000000000000     
   4.0625000000000001E-002  0.89687499999999998        0.0000000000000000     
   4.3749999999999997E-002  0.91874999999999996        0.0000000000000000     
   2.1874999999999999E-002  0.91562500000000002        0.0000000000000000     
   9.3750000000000000E-002  0.87500000000000000        0.0000000000000000     
  0.12500000000000000       0.87500000000000000        0.0000000000000000     
  0.12500000000000000       0.90625000000000000        0.0000000000000000     
   8.1250000000000003E-002  0.89375000000000004        0.0000000000000000     
  0.10312499999999999       0.89687499999999998        0.0000000000000000     
  0.10625000000000000       0.91874999999999996        0.0000000000000000     
   8.4375000000000006E-002  0.91562500000000002        0.0000000000000000     
  0.15625000000000000       0.93750000000000000        0.0000000000000000     
  0.18750000000000000       0.93750000000000000        0.0000000000000000     
  0.18750000000000000       0.96875000000000000        0.0000000000000000     
  0.14374999999999999       0.95625000000000004        0.0000000000000000     
  0.16562499999999999       0.95937499999999998        0.0000000000000000     
  0.16875000000000001       0.98124999999999996        0.0000000000000000     
  0.14687500000000001       0.97812500000000002        0.0000000000000000     
  0.21875000000000000       0.93750000000000000        0.0000000000000000     
  0.25000000000000000       0.93750000000000000        0.0000000000000000     
  0.25000000000000000       0.96875000000000000        0.0000000000000000     
  0.20624999999999999       0.95625000000000004        0.0000000000000000     
  0.22812499999999999       0.95937499999999998        0.0000000000000000     
  0.23125000000000001       0.98124999999999996        0.0000000000000000     
  0.20937500000000001       0.97812500000000002        0.0000000000000000     
  0.15625000000000000       0.87500000000000000        0.0000000000000000     
  0.18750000000000000       0.87500000000000000        0.0000000000000000     
  0.18750000000000000       0.90625000000000000        0.0000000000000000     
  0.14374999999999999       0.89375000000000004        0.0000000000000000     
  0.16562499999999999       0.89687499999999998        0.0000000000000000     
  0.16875000000000001       0.91874999999999996        0.0000000000000000     
  0.14687500000000001       0.91562500000000002        0.0000000000000000     
  0.21875000000000000       0.87500000000000000        0.0000000000000000     
  0.25000000000000000       0.87500000000000000        0.0000000000000000     
  0.25000000000000000       0.90625000000000000        0.0000000000000000     
  0.20624999999999999       0.89375000000000004        0.0000000000000000     
  0.22812499999999999       0.89687499999999998        0.0000000000000000     
  0.23125000000000001       0.91874999999999996        0.0000000000000000     
  0.20937500000000001       0.91562500000000002        0.0000000000000000     
   3.1250000000000000E-002  0.81250000000000000        0.0000000000000000     
   6.2500000000000000E-002  0.81250000000000000        0.0000000000000000     
   6.2500000000000000E-002  0.84375000000000000        0.0000000000000000     
   1.8749999999999999E-002  0.83125000000000004        0.0000000000000000     
   4.0625000000000001E-002  0.83437499999999998        0.0000000000000000     
   4.3749999999999997E-002  0.85624999999999996        0.0000000000000000     
   2.1874999999999999E-002  0.85312500000000002        0.0000000000000000     
   9.3750000000000000E-002  0.81250000000000000        0.0000000000000000     
  0.12500000000000000       0.81250000000000000        0.0000000000000000     
  0.12500000000000000       0.84375000000000000        0.0000000000000000     
   8.1250000000000003E-002  0.83125000000000004        0.0000000000000000     
  0.10312499999999999       0.83437499999999998        0.0000000000000000     
  0.10625000000000000       0.85624999999999996        0.0000000000000000     
   8.4375000000000006E-002  0.85312500000000002        0.0000000000000000     
   3.1250000000000000E-002  0.75000000000000000        0.0000000000000000     
   6.2500000000000000E-002  0.75000000000000000        0.0000000000000000     
   6.2500000000000000E-002  0.78125000000000000        0.0000000000000000     
   1.8749999999999999E-002  0.76875000000000004        0.0000000000000000     
   4.0625000000000001E-002  0.77187499999999998        0.0000000000000000     
   4.3749999999999997E-002  0.79374999999999996        0.0000000000000000     
   2.1874999999999999E-002  0.79062500000000002        0.0000000000000000     
   9.3750000000000000E-002  0.75000000000000000        0.0000000000000000     
  0.12500000000000000       0.75000000000000000        0.0000000000000000     
  0.12500000000000000       0.78125000000000000        0.0000000000000000     
   8.1250000000000003E-002  0.76875000000000004        0.0000000000000000     
  0.10312499999999999       0.77187499999999998        0.0000000000000000     
  0.10625000000000000       0.79374999999999996        0.0000000000000000     
   8.4375000000000006E-002  0.79062500000000002        0.0000000000000000     
  0.15625000000000000       0.81250000000000000        0.0000000000000000     
  0.18750000000000000       0.81250000000000000        0.0000000000000000     
  0.18750000000000000       0.84375000000000000        0.0000000000000000     
  0.14374999999999999       0.83125000000000004        0.0000000000000000     
  0.16562499999999999       0.83437499999999998        0.0000000000000000     
  0.16875000000000001       0.85624999999999996        0.0000000000000000     
  0.14687500000000001       0.85312500000000002        0.0000000000000000     
  0.21875000000000000       0.81250000000000000        0.0000000000000000     
  0.25000000000000000       0.81250000000000000        0.0000000000000000     
  0.25000000000000000       0.84375000000000000        0.0000000000000000     
  0.20624999999999999       0.83125000000000004        0.0000000000000000     
  0.22812499999999999       0.83437499999999998        0.0000000000000000     
  0.23125000000000001       0.85624999999999996        0.0000000000000000     
  0.20937500000000001       0.85312500000000002        0.0000000000000000     
  0.15625000000000000       0.75000000000000000        0.0000000000000000     
  0.18750000000000000       0.75000000000000000        0.0000000000000000     
  0.18750000000000000       0.78125000000000000        0.0000000000000000     
  0.14374999999999999       0.76875000000000004        0.0000000000000000     
  0.16562499999999999       0.77187499999999998        0.0000000000000000     
  0.16875000000000001       0.79374999999999996        0.0000000000000000     
  0.14687500000000001       0.79062500000000002        0.0000000000000000     
  0.21875000000000000       0.75000000000000000        0.0000000000000000     
  0.25000000000000000       0.75000000000000000        0.0000000000000000     
  0.25000000000000000       0.78125000000000000        0.0000000000000000     
  0.20624999999999999       0.76875000000000004        0.0000000000000000     
  0.22812499999999999       0.77187499999999998        0.0000000000000000     
  0.23125000000000001       0.79374999999999996        0.0000000000000000     
  0.20937500000000001       0.79062500000000002        0.0000000000000000     
  0.28125000000000000       0.93750000000000000        0.0000000000000000     
  0.31250000000000000       0.93750000000000000        0.0000000000000000     
  0.31250000000000000       0.96875000000000000        0.0000000000000000     
  0.26874999999999999       0.95625000000000004        0.0000000000000000     
  0.29062500000000002       0.95937499999999998        0.0000000000000000     
  0.29375000000000001       0.98124999999999996        0.0000000000000000     
  0.27187499999999998       0.97812500000000002        0.0000000000000000     
  0.34375000000000000       0.93750000000000000        0.0000000000000000     
  0.37500000000000000       0.93750000000000000        0.0000000000000000     
  0.37500000000000000       0.96875000000000000        0.0000000000000000     
  0.33124999999999999       0.95625000000000004        0.0000000000000000     
  0.35312500000000002       0.95937499999999998        0.0000000000000000     
  0.35625000000000001       0.98124999999999996        0.0000000000000000     
[...]
 CELL_DATA        3584
 SCALARS Tumor_cells float
 LOOKUP_TABLE default
   -0.72654667665794773446E-06
    0.75584748963126414727E-06
   -0.61050670446466140375E-06
   -0.61050650059220296741E-06
    0.75584744780595247007E-06
   -0.72654662478729985303E-06
    0.13864334409838596245E-05
    0.76708190360790626034E-06
    0.14779318637094717607E-05
    0.14779318922502524241E-05
    0.76708194707541809886E-06
    0.13864333492488876414E-05
    0.83727404318083482361E-05
    0.83727408163938645420E-05
   -0.72470403824699158573E-06
    0.75208712521099300215E-06
   -0.61066732368367171652E-06
   -0.61071536409942977964E-06
    0.75214081714919988676E-06
   -0.72655642055079063777E-06
    0.13833423832101684220E-05
    0.77255106494344177501E-06
    0.14769579637826458247E-05
   -0.60467019708993827668E-06
    0.78359011209167937880E-06
   -0.72653985874479554831E-06
    0.83678936218150816028E-05
    0.83582657800705172313E-05
   -0.72655652962652530777E-06
    0.75214080974463712636E-06
   -0.61071540709463287040E-06
   -0.61066714106570641707E-06
    0.75208720780716431052E-06
   -0.72470389372675655618E-06
   -0.72653989906031483099E-06
    0.78358976180300123394E-06
   -0.60467034205259026128E-06
    0.14769580029351185671E-05
    0.77255115368546190839E-06
    0.13833423515430033380E-05
    0.83582648569783345697E-05
    0.83678934508141542226E-05
   -0.72505367291977595475E-06
    0.74725202096488407537E-06
   -0.61097952616467020304E-06
   -0.61097944155903752939E-06
    0.74725209690792127948E-06
   -0.72505351362514926096E-06
   -0.72685045581493678746E-06
    0.79254922264508882771E-06
   -0.60472636275324249878E-06
   -0.60472642589977222740E-06
    0.79254969799262594557E-06
   -0.72685039026619811525E-06
    0.83469763639229141802E-05
    0.83469766877592529200E-05
   -0.72330219424552450665E-06
    0.74788281125450828422E-06
   -0.61095510165437999144E-06
   -0.61100646789801608406E-06
    0.74865706248411164056E-06
   -0.72665538526202700636E-06
    0.13806511144774399503E-05
    0.77987240737041873525E-06
    0.14762753500962978010E-05
   -0.60041993084224761803E-06
    0.80000270037089658063E-06
   -0.72596297116781877430E-06
    0.83601232051058765898E-05
    0.83457852535107909060E-05
   -0.72305311150014708290E-06
    0.74414319997887923935E-06
   -0.61135459195523770983E-06
   -0.61134687884369985517E-06
    0.74596507811800385386E-06
   -0.72685536134906264015E-06
    0.13788546041084717942E-05
    0.78864276703539145023E-06
    0.14759504098111271472E-05
   -0.59688374911220568934E-06
    0.81350684352536505811E-06
   -0.72637169611277605437E-06
    0.83493848294444889815E-05
    0.83375121745229857921E-05
   -0.72344153836889803437E-06
    0.73950452457748734074E-06
   -0.61147286705563665058E-06
   -0.61143324324321246242E-06
    0.74005640050422594318E-06
   -0.72382207160199878360E-06
   -0.72707486654869881874E-06
    0.81190229582535438097E-06
   -0.60112132022954137193E-06
   -0.60125625161261338094E-06
    0.81788322140105765962E-06
   -0.72705353890565896783E-06
    0.83257556089132132046E-05
    0.83264442798015902877E-05
   -0.72382267602581062751E-06
    0.73127596471964834206E-06
   -0.61220789929079107219E-06
   -0.61198999350390587312E-06
    0.73069006984539597578E-06
   -0.72054732399420159370E-06
   -0.72736013642909200174E-06
    0.84321850704882640687E-06
   -0.59743369783502862499E-06
   -0.59635944985405420273E-06
    0.83906256662200222159E-06
   -0.72740963271458866722E-06
    0.82931013403960036223E-05
    0.83095200725550875703E-05
   -0.72665547162362981279E-06
    0.74865697803491779958E-06
   -0.61100661019612328044E-06
   -0.61095485268706831309E-06
    0.74788285869216307290E-06
   -0.72330207659090726856E-06
   -0.72596294183308204802E-06
    0.80000244343787954323E-06
   -0.60042006707469978660E-06
    0.14762753081384928067E-05
    0.77987247415283484886E-06
    0.13806510995012238399E-05
    0.83457847586072190469E-05
    0.83601234788188678811E-05
   -0.72382223302203347705E-06
    0.74005630497235232929E-06
   -0.61143333634732373690E-06
   -0.61147272035390722889E-06
    0.73950458493576883667E-06
   -0.72344142004931863983E-06
   -0.72705360636143684012E-06
    0.81788279187069838784E-06
   -0.60125622996306100696E-06
   -0.60112134486055453491E-06
    0.81190262370356716192E-06
   -0.72707483138650236441E-06
    0.83264444696121141536E-05
    0.83257565448904492013E-05
   -0.72685541308453772160E-06
    0.74596512371169364500E-06
   -0.61134699302177719328E-06
   -0.61135437950963016555E-06
    0.74414318778092844308E-06
   -0.72305297532943768695E-06
   -0.72637175803504724207E-06
    0.81350656447391230020E-06
   -0.59688382632001078507E-06
    0.14759504345988441583E-05
    0.78864280199125777251E-06
    0.13788545800211129641E-05
    0.83375117288313996700E-05
    0.83493851262885151885E-05
   -0.72054744608783242297E-06
    0.73068990615424699273E-06
   -0.61199008524569181277E-06
   -0.61220774702758911438E-06
    0.73127598734713879365E-06
   -0.72382255065511996899E-06
   -0.72740970404390982895E-06
    0.83906216829932050609E-06
   -0.59635941149088106546E-06
   -0.59743371349908419297E-06
    0.84321881791088959599E-06
   -0.72736013316913810874E-06
    0.83095202733653862712E-05
    0.82931022422206526512E-05
   -0.72063320789376216819E-06
    0.72578718295470183082E-06
   -0.61229288265530233899E-06
   -0.61229272342884570382E-06
    0.72578715717719675120E-06
   -0.72063313657013444429E-06
   -0.72738173329431433507E-06
    0.85634606330899568772E-06
   -0.59457276123277838478E-06
   -0.59457280293515815864E-06
    0.85634641833347421595E-06
   -0.72738170661078448683E-06
    0.82872815179318099551E-05
    0.82872818862269650026E-05
   -0.72017598957489263275E-06
    0.70821194441618717475E-06
   -0.61372316146026128984E-06
   -0.61341257059687297983E-06
    0.70586774868573139488E-06
   -0.71345122918205738132E-06
   -0.72777054027057071023E-06
    0.92315090640702760958E-06
   -0.58640888522425075515E-06
   -0.58419750269014475822E-06
    0.89980843053731527505E-06
   -0.72796953810498538421E-06
    0.82206908591660776448E-05
    0.82490150503820206353E-05
   -0.71345127764856020998E-06
    0.70586767645859395494E-06
   -0.61341268743764148044E-06
   -0.61372304017863012513E-06
    0.70821200211227556356E-06
   -0.72017587314950443079E-06
   -0.72796958194781720402E-06
    0.89980815911223281912E-06
   -0.58419746314942408833E-06
   -0.58640885769016578490E-06
    0.92315126582932205814E-06
   -0.72777052137323346973E-06
    0.82490146560814040367E-05
    0.82206912156974358330E-05
   -0.70785434167477693862E-06
    0.66923620553890938722E-06
   -0.61612730217785082539E-06
   -0.61612718677865637981E-06
    0.66923626210488715895E-06
   -0.70785418128841276136E-06
   -0.72856953023347087512E-06
    0.10192305465514290074E-05
   -0.56636674729493577433E-06
   -0.56636669690806705858E-06
    0.10192308527040631251E-05
   -0.72856949538066739258E-06
    0.81308953465966392099E-05
    0.81308957196652145504E-05
   -0.72440651193055834588E-06
    0.74179879633284002020E-06
   -0.61181802291798503933E-06
   -0.61167347031484427561E-06
    0.74474161705537247570E-06
   -0.72708296610186760566E-06
    0.13785491598542066141E-05
    0.79767533022851814045E-06
    0.14761254050841871122E-05
   -0.59487168130662549235E-06
    0.81990321033636247494E-06
   -0.72739932653642237105E-06
    0.83367412863387540964E-05
    0.83363294607561224395E-05
   -0.72706901309172554659E-06
    0.74121695057809391478E-06
   -0.61222170661368861188E-06
   -0.61192551723525116338E-06
    0.74280355942606593738E-06
   -0.72514531298042887670E-06
    0.13800981686443587699E-05
    0.80505017414979546885E-06
    0.14768745917201771042E-05
   -0.59520793368694585134E-06
    0.81445117350329851743E-06
   -0.72774720594801882332E-06
    0.83247216989651820121E-05
    0.83440842898585080705E-05
   -0.72656738363305252944E-06
    0.72370605414521765062E-06
   -0.61305770299345496728E-06
   -0.61255526202084621442E-06
    0.72062001444676467055E-06
   -0.71523243560229714838E-06
   -0.72765537347852611818E-06
    0.88460914935193320459E-06
   -0.59439563029797592593E-06
   -0.59044391973439181954E-06
    0.84894862496025840877E-06
   -0.72793259203093524444E-06
    0.82511734183476492262E-05
    0.83021080466079810435E-05
   -0.72636141002599928591E-06
    0.71212593516232643567E-06
   -0.61369340740370676415E-06
   -0.61300531226738436863E-06
    0.71243346457592724110E-06
   -0.70883046522970545652E-06
   -0.72373204892872530507E-06
    0.92321247085302097346E-06
   -0.59307305075809062547E-06
   -0.58479171899886913109E-06
    0.84053980036422310557E-06
   -0.72848952327906558965E-06
    0.82084776421239593041E-05
    0.83091788952121540033E-05
   -0.72718356472001854545E-06
    0.73832735081450475474E-06
   -0.61248222319835008225E-06
   -0.61205249104646744793E-06
    0.74242541849843490996E-06
   -0.72276339304228840548E-06
    0.13833269743733307985E-05
    0.80891501070039399214E-06
    0.14781154257425654400E-05
   -0.59818484864051703420E-06
    0.79794040950964221291E-06
   -0.72804077175420262681E-06
    0.83163288411662685581E-05
    0.83599715007439727118E-05
   -0.72729697311146735104E-06
    0.73702508931849566662E-06
   -0.61255991348954833259E-06
   -0.61202904339280753682E-06
    0.74368451625768724485E-06
   -0.72038917225261806869E-06
    0.13873474690950950879E-05
    0.80868894492900117735E-06
    0.14789329711765726996E-05
   -0.60259365615534099734E-06
    0.77355151027697105181E-06
   -0.72824180539538555439E-06
    0.83134823604743541918E-05
    0.83808528722934924924E-05
   -0.72626990052764108136E-06
    0.70315538500545589061E-06
   -0.61396389435450495769E-06
   -0.61324046688616200523E-06
    0.70823100535852392915E-06
   -0.70282849066946750090E-06
   -0.71808963430481268322E-06
    0.95182167106279339365E-06
   -0.59410087836061725094E-06
   -0.58102679570186974067E-06
    0.81372821467705619990E-06
   -0.72900868882818857493E-06
    0.81763614046939854676E-05
    0.83301422952441639034E-05
   -0.72640657349281548203E-06
    0.69871216013215570976E-06
   -0.61388700451136981553E-06
   -0.61320813581582844626E-06
    0.70865729645885244405E-06
   -0.69839563109601826582E-06
   -0.71243509521659869967E-06
    0.96490169490453978267E-06
   -0.59730189026519072477E-06
   -0.58004235847737715652E-06
    0.77540329859713823725E-06
   -0.72937633636719628066E-06
    0.81617575428129371975E-05
    0.83598495827756590500E-05
   -0.72546682333871313662E-06
    0.69157885961057199348E-06
   -0.61558971439408508644E-06
   -0.61465130482066722721E-06
    0.68239906736933571968E-06
   -0.70138926691639085733E-06
   -0.72447093525164017939E-06
    0.10139257826526575995E-05
   -0.57808746308316684868E-06
   -0.57018153466017217879E-06
    0.92571582651600856044E-06
   -0.72902666944876313525E-06
    0.81258080490403103625E-05
    0.82254998138981601929E-05
   -0.72383594121024045466E-06
    0.66489631801882685805E-06
   -0.61635248849269265765E-06
   -0.61566631573653091486E-06
    0.66271867800239066106E-06
   -0.68703695174173790506E-06
   -0.71353681369804170679E-06
    0.11054659188568429397E-05
   -0.57270223160544335437E-06
   -0.55593910674137842500E-06
    0.91171617346591142722E-06
   -0.73017084339733131726E-06
    0.80235737228023535500E-05
    0.82330991584681175371E-05
   -0.70979237663580044801E-06
    0.62589580164170615334E-06
   -0.62004072798645025801E-06
   -0.61886311096419118571E-06
    0.61563081943961292593E-06
   -0.68258748201830623262E-06
   -0.72515311515591655942E-06
    0.12148928909285162956E-05
   -0.54332890533106598439E-06
   -0.53400644746981177834E-06
    0.10981638426097597968E-05
   -0.73026180688178677762E-06
    0.79262142054120868109E-05
    0.80558245017395197537E-05
   -0.71069772938776495857E-06
    0.58129486339989118708E-06
   -0.61807818614178984505E-06
   -0.62041632068125508439E-06
    0.57173343685551198039E-06
   -0.65175837598047000704E-06
   -0.69717319806225432319E-06
    0.14222000876413554684E-05
   -0.52518378730818671202E-06
   -0.49844257553465813369E-06
    0.10723339494844002481E-05
   -0.73258151848814113043E-06
    0.76847648446867400569E-05
    0.80605739946780929244E-05
   -0.72275232930795371847E-06
    0.64453656746984474278E-06
   -0.61580659203844203989E-06
   -0.61618667618951343097E-06
    0.65243577338448355784E-06
   -0.67446059310892764239E-06
   -0.70013241214713917640E-06
    0.11746713464731485628E-05
   -0.57264863250358866528E-06
   -0.54664708051483179718E-06
    0.85773196470052681571E-06
   -0.73129408854810351758E-06
    0.79476596059091789614E-05
    0.82702182477450364651E-05
   -0.72292260877315478825E-06
    0.63464867160617286042E-06
   -0.61465922741346624373E-06
   -0.61609959970215668915E-06
    0.65224442144551864976E-06
   -0.66594880760900945402E-06
   -0.68802819545915000269E-06
    0.12075434258491648847E-05
   -0.57774310392647920182E-06
   -0.54436177708331921581E-06
    0.78466215315413110586E-06
   -0.73212398608567688027E-06
    0.79133582079789481934E-05
    0.83235849262251396371E-05
   -0.70502040961069640576E-06
    0.54216438517453754818E-06
   -0.61072744719819053609E-06
   -0.62039074704363704151E-06
    0.55251547713413203914E-06
   -0.62743179937928543402E-06
   -0.66302422137284085088E-06
    0.15700463029071200212E-05
   -0.52213367134639190669E-06
   -0.47978021664933446624E-06
    0.94553797737702717830E-06
   -0.73408532393493612629E-06
    0.75256176499766166667E-05
    0.81325669762241515194E-05
   -0.70534742702697094192E-06
    0.52589419440219710397E-06
   -0.60437983240858655398E-06
   -0.61935478328071363715E-06
    0.55250248475840494045E-06
   -0.61191589500065060193E-06
   -0.63444924534842978975E-06
    0.16380356566186377001E-05
   -0.53224770596193307684E-06
   -0.47900314695733544847E-06
    0.80018235503748314230E-06
   -0.73509740698254590873E-06
    0.74614642434003370375E-05
    0.82297832934890766381E-05
   -0.72708298726090383516E-06
    0.74474164199737960862E-06
   -0.61167369039120456446E-06
   -0.61181777577943634059E-06
    0.74179878169711304926E-06
   -0.72440636374922012522E-06
   -0.72739936579478831374E-06
    0.81990293194878174208E-06
   -0.59487193455216908541E-06
    0.14761254091682725109E-05
    0.79767539715282741344E-06
    0.13785491613665835179E-05
    0.83363289735232335169E-05
    0.83367415969527221823E-05
   -0.71523257730928726181E-06
    0.72061990950630509426E-06
   -0.61255545545619993244E-06
   -0.61305758102253295405E-06
    0.72370606081345710519E-06
   -0.72656729403554531885E-06
   -0.72793265774669452016E-06
    0.84894821841212984562E-06
   -0.59044399973039167901E-06
   -0.59439569539407279074E-06
    0.88460947425926199108E-06
   -0.72765535804635132523E-06
    0.83021082341757463182E-05
    0.82511743581412124956E-05
   -0.72514535353910431936E-06
    0.74280354408462700781E-06
   -0.61192568846283185480E-06
   -0.61222149754541488060E-06
    0.74121694208425641922E-06
   -0.72706887254628801911E-06
   -0.72774725660072088863E-06
    0.81445090048812695529E-06
   -0.59520815006081691928E-06
    0.14768746334912083691E-05
    0.80505023846077484787E-06
    0.13800981301262728357E-05
    0.83440838429774556034E-05
    0.83247220335780515834E-05
   -0.70883054659477197429E-06
    0.71243338421966214043E-06
   -0.61300550194403139491E-06
   -0.61369322783060108162E-06
    0.71212590934639930628E-06
   -0.72636133765705116643E-06
   -0.72848956273085648217E-06
    0.84053939982109364676E-06
   -0.58479172899839482891E-06
   -0.59307313039172947247E-06
    0.92321280671294517743E-06
   -0.72373201149125848810E-06
    0.83091790301637504776E-05
    0.82084785386286366428E-05
   -0.70138931048699052307E-06
    0.68239906331197442223E-06
   -0.61465151002827765205E-06
   -0.61558965238603021349E-06
    0.69157884536323154583E-06
   -0.72546674175297653664E-06
   -0.72902674452490616356E-06
    0.92571553104651353893E-06
   -0.57018162243840614340E-06
   -0.57808749210024652623E-06
    0.10139261256012050862E-05
   -0.72447090534225311417E-06
    0.82254994260538370884E-05
    0.81258084117186069777E-05
   -0.68258755512811235470E-06
    0.61563085497451848837E-06
   -0.61886332798343846726E-06
   -0.62004063290969231712E-06
    0.62589582420573086140E-06
   -0.70979227118545806006E-06
   -0.73026185197676675694E-06
    0.10981635266153804082E-05
   -0.53400659233432917265E-06
   -0.54332892809728571553E-06
    0.12148931965333443484E-05
   -0.72515310295057264783E-06
    0.80558240896745419383E-05
    0.79262146561347521782E-05
   -0.68703704847363708253E-06
    0.66271866068380901419E-06
   -0.61566650649657278535E-06
   -0.61635238659569985849E-06
    0.66489636055684910361E-06
   -0.72383581904449069916E-06
   -0.73017082989964679166E-06
    0.91171591930157870253E-06
   -0.55593921325037657763E-06
   -0.57270224528766703065E-06
    0.11054662685081029572E-05
   -0.71353676434766571513E-06
    0.82330987028219190040E-05
    0.80235740897750801028E-05
   -0.65175842722073913434E-06
    0.57173343754140834437E-06
   -0.62041651536568233819E-06
   -0.61807807549381538236E-06
    0.58129489312387978669E-06
   -0.71069766455306733173E-06
   -0.73258154529398306565E-06
    0.10723336714182527427E-05
   -0.49844270535875379080E-06
   -0.52518375146726805102E-06
    0.14222003291958932489E-05
   -0.69717313449246456016E-06
    0.80605734952891665133E-05
    0.76847653340751059076E-05
   -0.72276343644591257220E-06
    0.74242540669278572915E-06
   -0.61205262971807910186E-06
   -0.61248202037659165363E-06
    0.73832732434779120056E-06
   -0.72718345915714168947E-06
   -0.72804082387627381566E-06
    0.79794013922649167175E-06
   -0.59818505703945336622E-06
    0.14781154531562160895E-05
    0.80891512734761885243E-06
    0.13833269828373943449E-05
    0.83599710831669279921E-05
    0.83163291659135133056E-05
   -0.70282860976867793707E-06
    0.70823087454409969060E-06
   -0.61324067197148469528E-06
   -0.61396383817795661856E-06
    0.70315539927600874678E-06
   -0.72626980989738016186E-06
   -0.72900869819084809328E-06
    0.81372782536980989258E-06
   -0.58102681378339820945E-06
   -0.59410093540054203804E-06
    0.95182203544859725747E-06
   -0.71808958949440083407E-06
    0.83301424576460297438E-05
    0.81763623095892153277E-05
   -0.72038922318954775693E-06
    0.74368451042136352877E-06
   -0.61202925210419748830E-06
   -0.61255975048270170339E-06
    0.73702513608467927416E-06
   -0.72729687768695431618E-06
   -0.72824177277881670936E-06
    0.77355122264590484227E-06
   -0.60259387436571989064E-06
    0.14789329776483031574E-05
    0.80868909622630563091E-06
    0.13873474348905377784E-05
    0.83808524350709737638E-05
    0.83134826470999511060E-05
   -0.69839573091529747888E-06
    0.70865714508718252113E-06
   -0.61320830949291745982E-06
   -0.61388695304384926590E-06
    0.69871215853507974640E-06
   -0.72640645060850014881E-06
   -0.72937635940945949651E-06
    0.77540290659565143712E-06
   -0.58004241667786911261E-06
   -0.59730191241863823451E-06
    0.96490208063433640216E-06
   -0.71243505834716212977E-06
    0.83598497011143458137E-05
    0.81617583823051634745E-05
   -0.67446066895037023249E-06
    0.65243569942155315695E-06
   -0.61618687277062035427E-06
   -0.61580651274593893614E-06
    0.64453658879110122832E-06
   -0.72275215760432558175E-06
   -0.73129410781171898029E-06
    0.85773174673219976319E-06
   -0.54664713245791634807E-06
   -0.57264864246196560840E-06
    0.11746716804417727094E-05
   -0.70013235316479663471E-06
    0.82702177565122750064E-05
    0.79476599766285524685E-05
   -0.62743190212524792128E-06
    0.55251546243707469475E-06
   -0.62039095788157689894E-06
   -0.61072735950218737702E-06
    0.54216442712330957141E-06
   -0.70502028991704862336E-06
   -0.73408533418380958318E-06
    0.94553782250309709408E-06
   -0.47978034166939276574E-06
   -0.52213358465157322095E-06
    0.15700466859938811954E-05
   -0.66302413127383507837E-06