# vtk DataFile Version 3.0
LAPLACIEN  2D
ASCII
DATASET UNSTRUCTURED_GRID
 POINTS        1857  float
   3.1250000000000000E-002  0.93750000000000000        0.0000000000000000     
   6.2500000000000000E-002  0.93750000000000000        0.0000000000000000     
   6.2500000000000000E-002  0.96875000000000000        0.0000000000000000     
   1.8749999999999999E-002  0.95625000000000004        0.0000000000000000     
   4.0625000000000001E-002  0.95937499999999998        0.0000000000000000     
   4.3749999999999997E-002  0.98124999999999996        0.0000000000000000     
   2.1874999999999999E-002  0.97812500000000002        0.0000000000000000     
   9.3750000000000000E-002  0.93750000000000000        0.0000000000000000     
  0.12500000000000000       0.93750000000000000        0.0000000000000000     
  0.12500000000000000       0.96875000000000000        0.0000000000000000     
   8.1250000000000003E-002  0.95625000000000004        0.0000000000000000     
  0.10312499999999999       0.95937499999999998        0.0000000000000000     
  0.10625000000000000       0.98124999999999996        0.0000000000000000     
   8.4375000000000006E-002  0.97812500000000002        0.0000000000000000     
   3.1250000000000000E-002  0.87500000000000000        0.0000000000000000     
   6.2500000000000000E-002  0.87500000000000000        0.0000000000000000     
   6.2500000000000000E-002  0.90625000000000000        0.0000000000000000     
   1.8749999999999999E-002  0.89375000000000004        0.0000000000000000     
   4.0625000000000001E-002  0.89687499999999998        0.0000000000000000     
   4.3749999999999997E-002  0.91874999999999996        0.0000000000000000     
   2.1874999999999999E-002  0.91562500000000002        0.0000000000000000     
   9.3750000000000000E-002  0.87500000000000000        0.0000000000000000     
  0.12500000000000000       0.87500000000000000        0.0000000000000000     
  0.12500000000000000       0.90625000000000000        0.0000000000000000     
   8.1250000000000003E-002  0.89375000000000004        0.0000000000000000     
  0.10312499999999999       0.89687499999999998        0.0000000000000000     
  0.10625000000000000       0.91874999999999996        0.0000000000000000     
   8.4375000000000006E-002  0.91562500000000002        0.0000000000000000     
  0.15625000000000000       0.93750000000000000        0.0000000000000000     
  0.18750000000000000       0.93750000000000000        0.0000000000000000     
  0.18750000000000000       0.96875000000000000        0.0000000000000000     
  0.14374999999999999       0.95625000000000004        0.0000000000000000     
  0.16562499999999999       0.95937499999999998        0.0000000000000000     
  0.16875000000000001       0.98124999999999996        0.0000000000000000     
  0.14687500000000001       0.97812500000000002        0.0000000000000000     
  0.21875000000000000       0.93750000000000000        0.0000000000000000     
  0.25000000000000000       0.93750000000000000        0.0000000000000000     
  0.25000000000000000       0.96875000000000000        0.0000000000000000     
  0.20624999999999999       0.95625000000000004        0.0000000000000000     
  0.22812499999999999       0.95937499999999998        0.0000000000000000     
  0.23125000000000001       0.98124999999999996        0.0000000000000000     
  0.20937500000000001       0.97812500000000002        0.0000000000000000     
  0.15625000000000000       0.87500000000000000        0.0000000000000000     
  0.18750000000000000       0.87500000000000000        0.0000000000000000     
  0.18750000000000000       0.90625000000000000        0.0000000000000000     
  0.14374999999999999       0.89375000000000004        0.0000000000000000     
  0.16562499999999999       0.89687499999999998        0.0000000000000000     
  0.16875000000000001       0.91874999999999996        0.0000000000000000     
  0.14687500000000001       0.91562500000000002        0.0000000000000000     
  0.21875000000000000       0.87500000000000000        0.0000000000000000     
  0.25000000000000000       0.87500000000000000        0.0000000000000000     
  0.25000000000000000       0.90625000000000000        0.0000000000000000     
  0.20624999999999999       0.89375000000000004        0.0000000000000000     
  0.22812499999999999       0.89687499999999998        0.0000000000000000     
  0.23125000000000001       0.91874999999999996        0.0000000000000000     
  0.20937500000000001       0.91562500000000002        0.0000000000000000     
   3.1250000000000000E-002  0.81250000000000000        0.0000000000000000     
   6.2500000000000000E-002  0.81250000000000000        0.0000000000000000     
   6.2500000000000000E-002  0.84375000000000000        0.0000000000000000     
   1.8749999999999999E-002  0.83125000000000004        0.0000000000000000     
   4.0625000000000001E-002  0.83437499999999998        0.0000000000000000     
   4.3749999999999997E-002  0.85624999999999996        0.0000000000000000     
   2.1874999999999999E-002  0.85312500000000002        0.0000000000000000     
   9.3750000000000000E-002  0.81250000000000000        0.0000000000000000     
  0.12500000000000000       0.81250000000000000        0.0000000000000000     
  0.12500000000000000       0.84375000000000000        0.0000000000000000     
   8.1250000000000003E-002  0.83125000000000004        0.0000000000000000     
  0.10312499999999999       0.83437499999999998        0.0000000000000000     
  0.10625000000000000       0.85624999999999996        0.0000000000000000     
   8.4375000000000006E-002  0.85312500000000002        0.0000000000000000     
   3.1250000000000000E-002  0.75000000000000000        0.0000000000000000     
   6.2500000000000000E-002  0.75000000000000000        0.0000000000000000     
   6.2500000000000000E-002  0.78125000000000000        0.0000000000000000     
   1.8749999999999999E-002  0.76875000000000004        0.0000000000000000     
   4.0625000000000001E-002  0.77187499999999998        0.0000000000000000     
   4.3749999999999997E-002  0.79374999999999996        0.0000000000000000     
   2.1874999999999999E-002  0.79062500000000002        0.0000000000000000     
   9.3750000000000000E-002  0.75000000000000000        0.0000000000000000     
  0.12500000000000000       0.75000000000000000        0.0000000000000000     
  0.12500000000000000       0.78125000000000000        0.0000000000000000     
   8.1250000000000003E-002  0.76875000000000004        0.0000000000000000     
  0.10312499999999999       0.77187499999999998        0.0000000000000000     
  0.10625000000000000       0.79374999999999996        0.0000000000000000     
   8.4375000000000006E-002  0.79062500000000002        0.0000000000000000     
  0.15625000000000000       0.81250000000000000        0.0000000000000000     
  0.18750000000000000       0.81250000000000000        0.0000000000000000     
  0.18750000000000000       0.84375000000000000        0.0000000000000000     
  0.14374999999999999       0.83125000000000004        0.0000000000000000     
  0.16562499999999999       0.83437499999999998        0.0000000000000000     
  0.16875000000000001       0.85624999999999996        0.0000000000000000     
  0.14687500000000001       0.85312500000000002        0.0000000000000000     
  0.21875000000000000       0.81250000000000000        0.0000000000000000     
  0.25000000000000000       0.81250000000000000        0.0000000000000000     
  0.25000000000000000       0.84375000000000000        0.0000000000000000     
  0.20624999999999999       0.83125000000000004        0.0000000000000000     
  0.22812499999999999       0.83437499999999998        0.0000000000000000     
  0.23125000000000001       0.85624999999999996        0.0000000000000000     
  0.20937500000000001       0.85312500000000002        0.0000000000000000     
  0.15625000000000000       0.75000000000000000        0.0000000000000000     
  0.18750000000000000       0.75000000000000000        0.0000000000000000     
  0.18750000000000000       0.78125000000000000        0.0000000000000000     
  0.14374999999999999       0.76875000000000004        0.0000000000000000     
  0.16562499999999999       0.77187499999999998        0.0000000000000000     
  0.16875000000000001       0.79374999999999996        0.0000000000000000     
  0.14687500000000001       0.79062500000000002        0.0000000000000000     
  0.21875000000000000       0.75000000000000000        0.0000000000000000     
  0.25000000000000000       0.75000000000000000        0.0000000000000000     
  0.25000000000000000       0.78125000000000000        0.0000000000000000     
  0.20624999999999999       0.76875000000000004        0.0000000000000000     
  0.22812499999999999       0.77187499999999998        0.0000000000000000     
  0.23125000000000001       0.79374999999999996        0.0000000000000000     
  0.20937500000000001       0.79062500000000002        0.0000000000000000     
  0.28125000000000000       0.93750000000000000        0.0000000000000000     
  0.31250000000000000       0.93750000000000000        0.0000000000000000     
  0.31250000000000000       0.96875000000000000        0.0000000000000000     
  0.26874999999999999       0.95625000000000004        0.0000000000000000     
  0.29062500000000002       0.95937499999999998        0.0000000000000000     
  0.29375000000000001       0.98124999999999996        0.0000000000000000     
  0.27187499999999998       0.97812500000000002        0.0000000000000000     
  0.34375000000000000       0.93750000000000000        0.0000000000000000     
  0.37500000000000000       0.93750000000000000        0.0000000000000000     
  0.37500000000000000       0.96875000000000000        0.0000000000000000     
  0.33124999999999999       0.95625000000000004        0.0000000000000000     
  0.35312500000000002       0.95937499999999998        0.0000000000000000     
  0.35625000000000001       0.98124999999999996        0.0000000000000000     
[...]
 CELL_DATA        3584
 SCALARS Tumor_cells float
 LOOKUP_TABLE default
   -0.24393522876464051734E-06
    0.20299358604305283659E-06
   -0.23729845465325088458E-06
   -0.23729845991615595350E-06
    0.20299356429857416843E-06
   -0.24393521593580486475E-06
    0.38806366995412270437E-06
    0.20386768002756066547E-06
    0.41201538553563726611E-06
    0.41201536126988535641E-06
    0.20386765155467143975E-06
    0.38806366881306572170E-06
    0.21086713293325289342E-05
    0.21086713820887110102E-05
   -0.24377521565787903847E-06
    0.20264154783276340026E-06
   -0.23730198808748333541E-06
   -0.23728950724900226322E-06
    0.20265746548269279477E-06
   -0.24396619804693288384E-06
    0.38780941278248672153E-06
    0.20426233799584555632E-06
    0.41194255051703092971E-06
   -0.23676869947467770117E-06
    0.20503551219054939247E-06
   -0.24390190678446303273E-06
    0.21083828412951188979E-05
    0.21078080472994558283E-05
   -0.24396621356816757960E-06
    0.20265747707113181121E-06
   -0.23728948761585811582E-06
   -0.23730195412415288302E-06
    0.20264156825063103077E-06
   -0.24377518452324044501E-06
   -0.24390190244450941534E-06
    0.20503549696802168613E-06
   -0.23676868612497986351E-06
    0.41194255738461159454E-06
    0.20426232641027160236E-06
    0.38780941035036020368E-06
    0.21078078851956028603E-05
    0.21083827226181479273E-05
   -0.24384575060511667635E-06
    0.20219107618743287814E-06
   -0.23728725232039226382E-06
   -0.23728725491367243795E-06
    0.20219107520027071762E-06
   -0.24384572084716644954E-06
   -0.24392956730197228037E-06
    0.20563774608348707113E-06
   -0.23675759349726449651E-06
   -0.23675759660980119889E-06
    0.20563780252154087144E-06
   -0.24392955538813968096E-06
    0.21071338442500412313E-05
    0.21071338713740165654E-05
   -0.24366945147237812955E-06
    0.20224957452852422447E-06
   -0.23730659852263123284E-06
   -0.23729405670824969432E-06
    0.20233634841395819437E-06
   -0.24400070754396856710E-06
    0.38758722455648617431E-06
    0.20479074653054861795E-06
    0.41188927440611786553E-06
   -0.23636117637132003815E-06
    0.20620154996389918241E-06
   -0.24385118721217404494E-06
    0.21079191898827402709E-05
    0.21070617803520488836E-05
   -0.24368230278193524408E-06
    0.20190008939410593454E-06
   -0.23730999687573496060E-06
   -0.23731448935481323793E-06
    0.20208124119350610172E-06
   -0.24403341939578324850E-06
    0.38743783790945278623E-06
    0.20542257418710527909E-06
    0.41186349776155982179E-06
   -0.23602228780615495485E-06
    0.20716786185317485393E-06
   -0.24388805718873031091E-06
    0.21072771441337204794E-05
    0.21065648614994900243E-05
   -0.24374762796882079047E-06
    0.20146699714990336707E-06
   -0.23727893016871562322E-06
   -0.23728986794127237372E-06
    0.20151861227584206442E-06
   -0.24376976833078020685E-06
   -0.24395012894664153217E-06
    0.20700027739053709990E-06
   -0.23640659830744329201E-06
   -0.23642163556561614741E-06
    0.20744460886748460722E-06
   -0.24394855466025371833E-06
    0.21058646865042764495E-05
    0.21059057052896330427E-05
   -0.24387010110758305264E-06
    0.20069733834786877735E-06
   -0.23725935952631726171E-06
   -0.23731643532516236483E-06
    0.20064129875762912144E-06
   -0.24349543241005349670E-06
   -0.24397748232135971065E-06
    0.20924859189875483886E-06
   -0.23605785208815310213E-06
   -0.23595049316883082560E-06
    0.20893160968762192113E-06
   -0.24398047066069824808E-06
    0.21039102345612355069E-05
    0.21048935858828889951E-05
   -0.24400071461526457328E-06
    0.20233632163221974633E-06
   -0.23729404893058734363E-06
   -0.23730656516529983524E-06
    0.20224956059903995771E-06
   -0.24366944458467217365E-06
   -0.24385117265421083955E-06
    0.20620152382226554431E-06
   -0.23636118228086575559E-06
    0.41188925459518729939E-06
    0.20479074745740671778E-06
    0.38758723349543747196E-06
    0.21070617516842696057E-05
    0.21079192089980152771E-05
   -0.24376979068937110254E-06
    0.20151859642525983589E-06
   -0.23728985535888381588E-06
   -0.23727890945649451441E-06
    0.20146698783743777709E-06
   -0.24374759240480524673E-06
   -0.24394856812737957158E-06
    0.20744456047983453730E-06
   -0.23642164139510645166E-06
   -0.23640660375842890343E-06
    0.20700026730768577997E-06
   -0.24395013418989263092E-06
    0.21059058302436026553E-05
    0.21058648561790788831E-05
   -0.24403342882857815368E-06
    0.20208125262604224559E-06
   -0.23731450936394504034E-06
   -0.23730998508903570676E-06
    0.20190005823222080580E-06
   -0.24368227167786072279E-06
   -0.24388805328544388304E-06
    0.20716784458024645651E-06
   -0.23602228187341517245E-06
    0.41186350176151706114E-06
    0.20542253852923120561E-06
    0.38743783480308094846E-06
    0.21065648426063282327E-05
    0.21072771540150628464E-05
   -0.24349546580659569056E-06
    0.20064126730466638786E-06
   -0.23731642114869041102E-06
   -0.23725935351772941112E-06
    0.20069733146518657386E-06
   -0.24387007116889124147E-06
   -0.24398047761142694927E-06
    0.20893156784446664786E-06
   -0.23595047122475609614E-06
   -0.23605784870273660957E-06
    0.20924858888665943572E-06
   -0.24397750325128925097E-06
    0.21048937360437582483E-05
    0.21039104006949574122E-05
   -0.24356221594958908246E-06
    0.20018213799398141710E-06
   -0.23727298995515947865E-06
   -0.23727298341501493734E-06
    0.20018210400671225190E-06
   -0.24356222256568328297E-06
   -0.24398028522316154342E-06
    0.21018361419798849930E-06
   -0.23578314544016766996E-06
   -0.23578315674373492139E-06
    0.21018362628957919480E-06
   -0.24398029152500562053E-06
    0.21035637216239647785E-05
    0.21035637385977088305E-05
   -0.24369353599405414228E-06
    0.19854062257613591178E-06
   -0.23722717316206543715E-06
   -0.23730568825909657958E-06
    0.19831492555600789015E-06
   -0.24296178620983178609E-06
   -0.24402324840331644553E-06
    0.21501102322099745662E-06
   -0.23504094136226753892E-06
   -0.23481025188569100837E-06
    0.21326683087491395512E-06
   -0.24403443225433178568E-06
    0.20995882804359361242E-05
    0.21012888260427514676E-05
   -0.24296178089245572240E-06
    0.19831493772636182361E-06
   -0.23730569005708693162E-06
   -0.23722717488087589044E-06
    0.19854061717400387850E-06
   -0.24369351588217811688E-06
   -0.24403444041240235046E-06
    0.21326683591841279440E-06
   -0.23481023045697039401E-06
   -0.23504094160761510549E-06
    0.21501105108694723569E-06
   -0.24402324317639338914E-06
    0.21012888117001954111E-05
    0.20995882987379629392E-05
   -0.24273765930815597941E-06
    0.19490530582517645835E-06
   -0.23724275231911940077E-06
   -0.23724274914479492715E-06
    0.19490533076646737198E-06
   -0.24273763258653955939E-06
   -0.24411015266038563970E-06
    0.22191620383564592128E-06
   -0.23326386103502284254E-06
   -0.23326387140744587508E-06
    0.22191623287759848310E-06
   -0.24411015819677943608E-06
    0.20943058037622618764E-05
    0.20943058081605676994E-05
   -0.24385404468492588441E-06
    0.20168100591387452350E-06
   -0.23731092400280848550E-06
   -0.23735137861048093146E-06
    0.20195663535383696184E-06
   -0.24405177833768843421E-06
    0.38741113316596269250E-06
    0.20606947412762239069E-06
    0.41187667222657935877E-06
   -0.23582917969561027128E-06
    0.20762147488791425360E-06
   -0.24397872285855208038E-06
    0.21065198172183687635E-05
    0.21064913086439939533E-05
   -0.24415182234396426844E-06
    0.20163273362399376743E-06
   -0.23730948324544299286E-06
   -0.23740080741136592903E-06
    0.20177600411942747094E-06
   -0.24385420600571547444E-06
    0.38753714238524450441E-06
    0.20659079517442036041E-06
    0.41193582498747165880E-06
   -0.23586034322631909965E-06
    0.20719579610749094179E-06
   -0.24400797023193765261E-06
    0.21058003980655605464E-05
    0.21069537095425775536E-05
   -0.24425445773107366171E-06
    0.19999943432591464302E-06
   -0.23722668281310413780E-06
   -0.23737275315333159299E-06
    0.19969722368126180306E-06
   -0.24300912765358831701E-06
   -0.24400757310016980845E-06
    0.21224866150504516634E-06
   -0.23578609157116985780E-06
   -0.23538050122465026185E-06
    0.20957546624647911514E-06
   -0.24402431167281018647E-06
    0.21014004350657266861E-05
    0.21044582929400950119E-05
   -0.24439105240708004860E-06
    0.19897738417432736010E-06
   -0.23718724230158761215E-06
   -0.23745365791624271547E-06
    0.19893225049731255599E-06
   -0.24239192310848075646E-06
   -0.24367745473647206397E-06
    0.21500409004841838155E-06
   -0.23568770597256608992E-06
   -0.23482661877352510502E-06
    0.20885987563236118378E-06
   -0.24407211902423191684E-06
    0.20988521060601423504E-05
    0.21049066929242392436E-05
   -0.24420889052939949424E-06
    0.20139794698543633475E-06
   -0.23730759030699440428E-06
   -0.23745364516406460341E-06
    0.20174129843307061030E-06
   -0.24360175548149783545E-06
    0.38780171769933771784E-06
    0.20685411214231685110E-06
    0.41203505166321898552E-06
   -0.23614313500585658335E-06
    0.20596367488619918083E-06
   -0.24403341963284738870E-06
    0.21052994653475546154E-05
    0.21079050722034941046E-05
   -0.24424577275146009787E-06
    0.20131370804362611249E-06
   -0.23730608691808338295E-06
   -0.23749906228708621480E-06
    0.20185888318484536000E-06
   -0.24334517467101545965E-06
    0.38813237926477182804E-06
    0.20682510989577699258E-06
    0.41209698243693035378E-06
   -0.23656232304485256975E-06
    0.20416735622602872901E-06
   -0.24405068388065291009E-06
    0.21051302869302813931E-05
    0.21091548553846299248E-05
   -0.24451108026321729880E-06
    0.19821979159335112611E-06
   -0.23715485526218098170E-06
   -0.23754045325199624284E-06
    0.19854522339889494345E-06
   -0.24178916255818891611E-06
   -0.24320273629279121129E-06
    0.21701415786939543827E-06
   -0.23581229152429205077E-06
   -0.23443960249105087283E-06
    0.20678678410694756577E-06
   -0.24411499606613775980E-06
    0.20969486671079863531E-05
    0.21061987113247892080E-05
   -0.24458896189730100239E-06
    0.19788405090782238071E-06
   -0.23713677747346743545E-06
   -0.23761388234856892869E-06
    0.19859132893663861057E-06
   -0.24132538705677338877E-06
   -0.24272568977745287911E-06
    0.21790220632569718553E-06
   -0.23613183870857814052E-06
   -0.23431098513124146667E-06
    0.20389509453298109296E-06
   -0.24414362449817774763E-06
    0.20960956655175282173E-05
    0.21080065389013520876E-05
   -0.24449591864827080453E-06
    0.19701122043209995516E-06
   -0.23714139663419087842E-06
   -0.23740421791993643033E-06
    0.19612088404916111970E-06
   -0.24185695270279253153E-06
   -0.24376916959595366246E-06
    0.22155586677496578841E-06
   -0.23434554985598648720E-06
   -0.23350313210734157264E-06
    0.21502471340792405217E-06
   -0.24411823269319507197E-06
    0.20939455762707398133E-05
    0.20999468304586965535E-05
   -0.24477235462313699637E-06
    0.19468032159279512799E-06
   -0.23702436395535126775E-06
   -0.23756427241513897662E-06
    0.19430985729310286885E-06
   -0.24046584136948597205E-06
   -0.24290732380580856801E-06
    0.22803087410156341118E-06
   -0.23397247473235963947E-06
   -0.23214450457603517751E-06
    0.21377758855808249156E-06
   -0.24421417402303213756E-06
    0.20879394445086139453E-05
    0.21005594696240528905E-05
   -0.24370734164305983586E-06
    0.19090460874668713307E-06
   -0.23705816850657052063E-06
   -0.23741915895424972330E-06
    0.18988488586959995873E-06
   -0.24043927902394491284E-06
   -0.24391696942966534358E-06
    0.23610982611115014364E-06
   -0.23152681874442581863E-06
   -0.23047659072724136703E-06
    0.22759256862540342798E-06
   -0.24426832988053381793E-06
    0.20822838743795022123E-05
    0.20901383715299297199E-05
   -0.24532359794302147455E-06
    0.18686027183320071133E-06
   -0.23673223763723854768E-06
   -0.23779194197343854640E-06
    0.18583203649276344620E-06
   -0.23733951437885659894E-06
   -0.24191604650691977320E-06
    0.25079308948473961113E-06
   -0.23048785039247470546E-06
   -0.22727978904076855259E-06
    0.22538943245858216809E-06
   -0.24450723905732671381E-06
    0.20681323474157342206E-05
    0.20913413383338004589E-05
   -0.24501058912629421459E-06
    0.19300807500155884267E-06
   -0.23692870268591298157E-06
   -0.23773239722791966352E-06
    0.19341617423914944152E-06
   -0.23920481349137356698E-06
   -0.24187343941855689952E-06
    0.23274725906726849734E-06
   -0.23408489431161069660E-06
   -0.23119023317688061535E-06
    0.20952592076967268100E-06
   -0.24430093694983235091E-06
    0.20836152892042028382E-05
    0.21029791192715720860E-05
   -0.24516410121318104697E-06
    0.19230289083701534950E-06
   -0.23687447097199279801E-06
   -0.23786690061343992454E-06
    0.19344667899581613232E-06
   -0.23832397164881838130E-06
   -0.24094166097749367512E-06
    0.23481019706690874336E-06
   -0.23460452313626533239E-06
   -0.23085732945270204220E-06
    0.20397826409221476300E-06
   -0.24435644516428121366E-06
    0.20817811318336455622E-05
    0.21062687128498735383E-05
   -0.24579171347392372137E-06
    0.18352786800315906063E-06
   -0.23647226008164584162E-06
   -0.23813492434540203329E-06
    0.18428116242902167120E-06
   -0.23482735999559955591E-06
   -0.23960377691298937866E-06
    0.26046629056503401785E-06
   -0.23072497376205892397E-06
   -0.22528905925424101761E-06
    0.21518720284600213266E-06
   -0.24470540737369303006E-06
    0.20593792194025179257E-05
    0.20968353126237205083E-05
   -0.24608268330223589629E-06
    0.18236348679680216559E-06
   -0.23632835794419183002E-06
   -0.23837542302442240956E-06
    0.18443789842743699289E-06
   -0.23323518254028015944E-06
   -0.23774146417110727295E-06
    0.26418766951247626776E-06
   -0.23177372292885494570E-06
   -0.22481297280673677800E-06
    0.20411531337243524733E-06
   -0.24481685912941745512E-06
    0.20563653322588722650E-05
    0.21031299433355598493E-05
   -0.24405177808966104069E-06
    0.20195667122664466631E-06
   -0.23735141033935575376E-06
   -0.23731087715814208731E-06
    0.20168101062114736660E-06
   -0.24385401295789807039E-06
   -0.24397872507998280543E-06
    0.20762147527138089190E-06
   -0.23582921426045092736E-06
    0.41187669321764980186E-06
    0.20606944151433108670E-06
    0.38741114275265681381E-06
    0.21064912834481180230E-05
    0.21065198436603072392E-05
   -0.24300914831558736006E-06
    0.19969722143341558792E-06
   -0.23737278752094518010E-06
   -0.23722667305999877377E-06
    0.19999941512530429672E-06
   -0.24425443781279776313E-06
   -0.24402432025071083161E-06
    0.20957542921205317967E-06
   -0.23538049514340861019E-06
   -0.23578613443558902334E-06
    0.21224868092056569140E-06
   -0.24400758175890174896E-06
    0.21044584156611045105E-05
    0.21014006101299350653E-05
   -0.24385420522794388188E-06
    0.20177601257094966215E-06
   -0.23740082912686871180E-06
   -0.23730946625835298386E-06
    0.20163269546214426809E-06
   -0.24415177618864891105E-06
   -0.24400797722217737029E-06
    0.20719579085142839030E-06
   -0.23586035047922688418E-06
    0.41193583481474378356E-06
    0.20659077270943513852E-06
    0.38753715161029478546E-06
    0.21069536740676836402E-05
    0.21058004215340406828E-05
   -0.24239191926651220831E-06
    0.19893223681048525564E-06
   -0.23745368780198006495E-06
   -0.23718722034688534558E-06
    0.19897737234644742900E-06
   -0.24439106649548561631E-06
   -0.24407211128867906797E-06
    0.20885982827947136442E-06
   -0.23482659756682672863E-06
   -0.23568774363829272195E-06
    0.21500410908321443160E-06
   -0.24367745657074446350E-06
    0.21049068077393379799E-05
    0.20988522693027985052E-05
   -0.24185694480334510716E-06
    0.19612091828873127727E-06
   -0.23740423131677398085E-06
   -0.23714142537426777998E-06
    0.19701121403266442117E-06
   -0.24449591063349211522E-06
   -0.24411825269149223772E-06
    0.21502470727386939333E-06
   -0.23350315107350849868E-06
   -0.23434557042899730761E-06
    0.22155590504289901756E-06
   -0.24376917345361773112E-06
    0.20999468241138493019E-05
    0.20939455952232942846E-05
   -0.24043928391782139063E-06
    0.18988491708544656545E-06
   -0.23741920864981991069E-06
   -0.23705818824863399944E-06
    0.19090460215915284536E-06
   -0.24370731540455950992E-06
   -0.24426835224183135446E-06
    0.22759254296515703678E-06
   -0.23047659589810841824E-06
   -0.23152685375911275574E-06
    0.23610984076123620240E-06
   -0.24391698860648343436E-06
    0.20901383558993406355E-05
    0.20822839157719872532E-05
   -0.24046583683189198655E-06
    0.19430988638750466367E-06
   -0.23756429160500513350E-06
   -0.23702436250490525729E-06
    0.19468032303407150387E-06
   -0.24477233607598710495E-06
   -0.24421416397937184096E-06
    0.21377759821213169345E-06
   -0.23214452429882365397E-06
   -0.23397249273373187167E-06
    0.22803090804583009008E-06
   -0.24290730451020289434E-06
    0.21005594421337480887E-05
    0.20879394704652796223E-05
   -0.23733950245499798816E-06
    0.18583204107493248762E-06
   -0.23779196859409313897E-06
   -0.23673223720746369171E-06
    0.18686025435242633699E-06
   -0.24532361361061208159E-06
   -0.24450725162868054994E-06
    0.22538943252795054011E-06
   -0.22727978987793023082E-06
   -0.23048786829748081981E-06
    0.25079311906251417748E-06
   -0.24191603923735691218E-06
    0.20913413237367499653E-05
    0.20681323843356921765E-05
   -0.24360176363552704722E-06
    0.20174133507063773424E-06
   -0.23745363151619687463E-06
   -0.23730758497661974650E-06
    0.20139790845382646074E-06
   -0.24420885821224530818E-06
   -0.24403342138023358373E-06
    0.20596367053103158115E-06
   -0.23614314702718944282E-06
    0.41203505975699720850E-06
    0.20685410618094841387E-06
    0.38780172345985982020E-06
    0.21079050645433507991E-05
    0.21052994921225964210E-05
   -0.24178918020202819717E-06
    0.19854519458524748648E-06
   -0.23754047634062657162E-06
   -0.23715485660176837882E-06
    0.19821979551371725867E-06
   -0.24451106668385815067E-06
   -0.24411500062622703456E-06
    0.20678672334642867851E-06
   -0.23443960324614485228E-06
   -0.23581232360156687675E-06
    0.21701420245090775073E-06
   -0.24320272861614209236E-06
    0.21061988347756865737E-05
    0.20969488313610770045E-05
   -0.24334518047201784889E-06
    0.20185889630249645711E-06
   -0.23749908235110151702E-06
   -0.23730607652293064479E-06
    0.20131371740401939419E-06
   -0.24424577938808463002E-06
   -0.24405066483796778046E-06
    0.20416736405313845442E-06
   -0.23656234433117011089E-06
    0.41209699162947622193E-06
    0.20682511237200338086E-06
    0.38813237089562488796E-06
    0.21091548313049261550E-05
    0.21051303107851652546E-05
   -0.24132542165377969751E-06
    0.19859129293623579522E-06
   -0.23761390723265631925E-06
   -0.23713679068095127353E-06
    0.19788401253289798478E-06
   -0.24458894811451725697E-06
   -0.24414362563578301810E-06
    0.20389504879698915789E-06
   -0.23431099346630279509E-06
   -0.23613183421840778273E-06
    0.21790224571834627890E-06
   -0.24272565968601175198E-06
    0.21080066660528754135E-05
    0.20960958271057655488E-05
   -0.23920480413350465522E-06
    0.19341616296668936920E-06
   -0.23773242155741805522E-06
   -0.23692872106369932340E-06
    0.19300806280406539125E-06
   -0.24501055445893393159E-06
   -0.24430093747538691323E-06
    0.20952594099275290919E-06
   -0.23119022131714962494E-06
   -0.23408494318999954831E-06
    0.23274727901976047712E-06
   -0.24187342439076336476E-06
    0.21029790792296734562E-05
    0.20836153159199222678E-05
   -0.23482737925598777016E-06
    0.18428119209023800905E-06
   -0.23813496599755354748E-06
   -0.23647229801754909052E-06
    0.18352787214552064373E-06
   -0.24579170870019050270E-06
   -0.24470541267177998302E-06
    0.21518717246704538600E-06
   -0.22528908647277731001E-06
   -0.23072501097234891045E-06
    0.26046632566797670587E-06
   -0.23960376234881519831E-06