# vtk DataFile Version 3.0
LAPLACIEN  2D
ASCII
DATASET UNSTRUCTURED_GRID
 POINTS        1857  float
   3.1250000000000000E-002  0.93750000000000000        0.0000000000000000     
   6.2500000000000000E-002  0.93750000000000000        0.0000000000000000     
   6.2500000000000000E-002  0.96875000000000000        0.0000000000000000     
   1.8749999999999999E-002  0.95625000000000004        0.0000000000000000     
   4.0625000000000001E-002  0.95937499999999998        0.0000000000000000     
   4.3749999999999997E-002  0.98124999999999996        0.0000000000000000     
   2.1874999999999999E-002  0.97812500000000002        0.0000000000000000     
   9.3750000000000000E-002  0.93750000000000000        0.0000000000000000     
  0.12500000000000000       0.93750000000000000        0.0000000000000000     
  0.12500000000000000       0.96875000000000000        0.0000000000000000     
   8.1250000000000003E-002  0.95625000000000004        0.0000000000000000     
  0.10312499999999999       0.95937499999999998        0.0000000000000000     
  0.10625000000000000       0.98124999999999996        0.0000000000000000     
   8.4375000000000006E-002  0.97812500000000002        0.0000000000000000     
   3.1250000000000000E-002  0.87500000000000000        0.0000000000000000     
   6.2500000000000000E-002  0.87500000000000000        0.0000000000000000     
   6.2500000000000000E-002  0.90625000000000000        0.0000000000000000     
   1.8749999999999999E-002  0.89375000000000004        0.0000000000000000     
   4.0625000000000001E-002  0.89687499999999998        0.0000000000000000     
   4.3749999999999997E-002  0.91874999999999996        0.0000000000000000     
   2.1874999999999999E-002  0.91562500000000002        0.0000000000000000     
   9.3750000000000000E-002  0.87500000000000000        0.0000000000000000     
  0.12500000000000000       0.87500000000000000        0.0000000000000000     
  0.12500000000000000       0.90625000000000000        0.0000000000000000     
   8.1250000000000003E-002  0.89375000000000004        0.0000000000000000     
  0.10312499999999999       0.89687499999999998        0.0000000000000000     
  0.10625000000000000       0.91874999999999996        0.0000000000000000     
   8.4375000000000006E-002  0.91562500000000002        0.0000000000000000     
  0.15625000000000000       0.93750000000000000        0.0000000000000000     
  0.18750000000000000       0.93750000000000000        0.0000000000000000     
  0.18750000000000000       0.96875000000000000        0.0000000000000000     
  0.14374999999999999       0.95625000000000004        0.0000000000000000     
  0.16562499999999999       0.95937499999999998        0.0000000000000000     
  0.16875000000000001       0.98124999999999996        0.0000000000000000     
  0.14687500000000001       0.97812500000000002        0.0000000000000000     
  0.21875000000000000       0.93750000000000000        0.0000000000000000     
  0.25000000000000000       0.93750000000000000        0.0000000000000000     
  0.25000000000000000       0.96875000000000000        0.0000000000000000     
  0.20624999999999999       0.95625000000000004        0.0000000000000000     
  0.22812499999999999       0.95937499999999998        0.0000000000000000     
  0.23125000000000001       0.98124999999999996        0.0000000000000000     
  0.20937500000000001       0.97812500000000002        0.0000000000000000     
  0.15625000000000000       0.87500000000000000        0.0000000000000000     
  0.18750000000000000       0.87500000000000000        0.0000000000000000     
  0.18750000000000000       0.90625000000000000        0.0000000000000000     
  0.14374999999999999       0.89375000000000004        0.0000000000000000     
  0.16562499999999999       0.89687499999999998        0.0000000000000000     
  0.16875000000000001       0.91874999999999996        0.0000000000000000     
  0.14687500000000001       0.91562500000000002        0.0000000000000000     
  0.21875000000000000       0.87500000000000000        0.0000000000000000     
  0.25000000000000000       0.87500000000000000        0.0000000000000000     
  0.25000000000000000       0.90625000000000000        0.0000000000000000     
  0.20624999999999999       0.89375000000000004        0.0000000000000000     
  0.22812499999999999       0.89687499999999998        0.0000000000000000     
  0.23125000000000001       0.91874999999999996        0.0000000000000000     
  0.20937500000000001       0.91562500000000002        0.0000000000000000     
   3.1250000000000000E-002  0.81250000000000000        0.0000000000000000     
   6.2500000000000000E-002  0.81250000000000000        0.0000000000000000     
   6.2500000000000000E-002  0.84375000000000000        0.0000000000000000     
   1.8749999999999999E-002  0.83125000000000004        0.0000000000000000     
   4.0625000000000001E-002  0.83437499999999998        0.0000000000000000     
   4.3749999999999997E-002  0.85624999999999996        0.0000000000000000     
   2.1874999999999999E-002  0.85312500000000002        0.0000000000000000     
   9.3750000000000000E-002  0.81250000000000000        0.0000000000000000     
  0.12500000000000000       0.81250000000000000        0.0000000000000000     
  0.12500000000000000       0.84375000000000000        0.0000000000000000     
   8.1250000000000003E-002  0.83125000000000004        0.0000000000000000     
  0.10312499999999999       0.83437499999999998        0.0000000000000000     
  0.10625000000000000       0.85624999999999996        0.0000000000000000     
   8.4375000000000006E-002  0.85312500000000002        0.0000000000000000     
   3.1250000000000000E-002  0.75000000000000000        0.0000000000000000     
   6.2500000000000000E-002  0.75000000000000000        0.0000000000000000     
   6.2500000000000000E-002  0.78125000000000000        0.0000000000000000     
   1.8749999999999999E-002  0.76875000000000004        0.0000000000000000     
   4.0625000000000001E-002  0.77187499999999998        0.0000000000000000     
   4.3749999999999997E-002  0.79374999999999996        0.0000000000000000     
   2.1874999999999999E-002  0.79062500000000002        0.0000000000000000     
   9.3750000000000000E-002  0.75000000000000000        0.0000000000000000     
  0.12500000000000000       0.75000000000000000        0.0000000000000000     
  0.12500000000000000       0.78125000000000000        0.0000000000000000     
   8.1250000000000003E-002  0.76875000000000004        0.0000000000000000     
  0.10312499999999999       0.77187499999999998        0.0000000000000000     
  0.10625000000000000       0.79374999999999996        0.0000000000000000     
   8.4375000000000006E-002  0.79062500000000002        0.0000000000000000     
  0.15625000000000000       0.81250000000000000        0.0000000000000000     
  0.18750000000000000       0.81250000000000000        0.0000000000000000     
  0.18750000000000000       0.84375000000000000        0.0000000000000000     
  0.14374999999999999       0.83125000000000004        0.0000000000000000     
  0.16562499999999999       0.83437499999999998        0.0000000000000000     
  0.16875000000000001       0.85624999999999996        0.0000000000000000     
  0.14687500000000001       0.85312500000000002        0.0000000000000000     
  0.21875000000000000       0.81250000000000000        0.0000000000000000     
  0.25000000000000000       0.81250000000000000        0.0000000000000000     
  0.25000000000000000       0.84375000000000000        0.0000000000000000     
  0.20624999999999999       0.83125000000000004        0.0000000000000000     
  0.22812499999999999       0.83437499999999998        0.0000000000000000     
  0.23125000000000001       0.85624999999999996        0.0000000000000000     
  0.20937500000000001       0.85312500000000002        0.0000000000000000     
  0.15625000000000000       0.75000000000000000        0.0000000000000000     
  0.18750000000000000       0.75000000000000000        0.0000000000000000     
  0.18750000000000000       0.78125000000000000        0.0000000000000000     
  0.14374999999999999       0.76875000000000004        0.0000000000000000     
  0.16562499999999999       0.77187499999999998        0.0000000000000000     
  0.16875000000000001       0.79374999999999996        0.0000000000000000     
  0.14687500000000001       0.79062500000000002        0.0000000000000000     
  0.21875000000000000       0.75000000000000000        0.0000000000000000     
  0.25000000000000000       0.75000000000000000        0.0000000000000000     
  0.25000000000000000       0.78125000000000000        0.0000000000000000     
  0.20624999999999999       0.76875000000000004        0.0000000000000000     
  0.22812499999999999       0.77187499999999998        0.0000000000000000     
  0.23125000000000001       0.79374999999999996        0.0000000000000000     
  0.20937500000000001       0.79062500000000002        0.0000000000000000     
  0.28125000000000000       0.93750000000000000        0.0000000000000000     
  0.31250000000000000       0.93750000000000000        0.0000000000000000     
  0.31250000000000000       0.96875000000000000        0.0000000000000000     
  0.26874999999999999       0.95625000000000004        0.0000000000000000     
  0.29062500000000002       0.95937499999999998        0.0000000000000000     
  0.29375000000000001       0.98124999999999996        0.0000000000000000     
  0.27187499999999998       0.97812500000000002        0.0000000000000000     
  0.34375000000000000       0.93750000000000000        0.0000000000000000     
  0.37500000000000000       0.93750000000000000        0.0000000000000000     
  0.37500000000000000       0.96875000000000000        0.0000000000000000     
  0.33124999999999999       0.95625000000000004        0.0000000000000000     
  0.35312500000000002       0.95937499999999998        0.0000000000000000     
  0.35625000000000001       0.98124999999999996        0.0000000000000000     
[...]
 CELL_DATA        3584
 SCALARS Tumor_cells float
 LOOKUP_TABLE default
   -0.34471818858594168237E-06
    0.31501716915077331913E-06
   -0.32437342150452316516E-06
   -0.32437340591660167134E-06
    0.31501714111794439104E-06
   -0.34471817573886506939E-06
    0.58809772353367335067E-06
    0.31702988585796632316E-06
    0.62559459714924347815E-06
    0.62559457959539387738E-06
    0.31702986835757731274E-06
    0.58809771660824102376E-06
    0.32777394063852843545E-05
    0.32777394949348371087E-05
   -0.34436388828945176788E-06
    0.31425427372386957937E-06
   -0.32439027832823512470E-06
   -0.32437660300389482558E-06
    0.31428117367292003017E-06
   -0.34476339481863357505E-06
    0.58751848895951450600E-06
    0.31796777418440733738E-06
    0.62542282849492980767E-06
   -0.32322366764515573963E-06
    0.31981103957042217550E-06
   -0.34467034691775306449E-06
    0.32769897569729120279E-05
    0.32754956154856362788E-05
   -0.34476342577776408310E-06
    0.31428118712419334418E-06
   -0.32437658751247817772E-06
   -0.32439025074554470401E-06
    0.31425431345737452454E-06
   -0.34436383330155217517E-06
   -0.34467035365300182491E-06
    0.31981100497045855710E-06
   -0.32322365962675249046E-06
    0.62542284247793858929E-06
    0.31796776362301461597E-06
    0.58751848149407389950E-06
    0.32754953442471132530E-05
    0.32769895888098131069E-05
   -0.34448855453427511588E-06
    0.31327633194088826276E-06
   -0.32439303100925832660E-06
   -0.32439303492134892080E-06
    0.31327633994170652561E-06
   -0.34448851045752683616E-06
   -0.34473160875651704798E-06
    0.32127560785527778218E-06
   -0.32321358993382363849E-06
   -0.32321360947171313408E-06
    0.32127570578302950952E-06
   -0.34473158552889184187E-06
    0.32737444653676770262E-05
    0.32737445264004911980E-05
   -0.34411794406018549600E-06
    0.31340305363933760752E-06
   -0.32441812099134607864E-06
   -0.32440462326286530086E-06
    0.31358105938761022711E-06
   -0.34482029151045268958E-06
    0.58701254512358711717E-06
    0.31922131888028231137E-06
    0.62529716636377180947E-06
   -0.32235599173815220737E-06
    0.32258541487201588560E-06
   -0.34455990659979656284E-06
    0.32757860517109583235E-05
    0.32735577776288490409E-05
   -0.34412004048870733194E-06
    0.31264418229808942500E-06
   -0.32445248751889454630E-06
   -0.32445821900364407440E-06
    0.31302922538962153603E-06
   -0.34488185333567762201E-06
    0.58667288321747245433E-06
    0.32071880064036036627E-06
    0.62523512987679156195E-06
   -0.32163532330663300912E-06
    0.32487895957443213908E-06
   -0.34464156920452703207E-06
    0.32741199201821167090E-05
    0.32722699730775748971E-05
   -0.34423964518532366210E-06
    0.31170568187407678320E-06
   -0.32441797143652847566E-06
   -0.32443023912119423589E-06
    0.31181757325319475065E-06
   -0.34429734831033428442E-06
   -0.34477760872691679264E-06
    0.32453076192467687352E-06
   -0.32247366120533867409E-06
   -0.32250461235404752677E-06
    0.32557161763677211806E-06
   -0.34477392799335078241E-06
    0.32704498181647963359E-05
    0.32705560603948549235E-05
   -0.34444258278931133293E-06
    0.31003706459514512764E-06
   -0.32444463566518332863E-06
   -0.32450771045092242648E-06
    0.30991621866783984890E-06
   -0.34368449124351265823E-06
   -0.34483821204552255023E-06
    0.32986142132411428202E-06
   -0.32173448302695790156E-06
   -0.32150950099810139032E-06
    0.32913168516397266885E-06
   -0.34484556415730870539E-06
    0.32653790171747095605E-05
    0.32679303943271050800E-05
   -0.34482031286216916812E-06
    0.31358101870353303892E-06
   -0.32440462772689791597E-06
   -0.32441806990945474830E-06
    0.31340303974068811937E-06
   -0.34411792810559725654E-06
   -0.34455989857341288689E-06
    0.32258536563356338653E-06
   -0.32235599978159523276E-06
    0.62529713608450313799E-06
    0.31922131686484804033E-06
    0.58701255994413032446E-06
    0.32735577055813416663E-05
    0.32757861022198772872E-05
   -0.34429741113621222638E-06
    0.31181755279872185017E-06
   -0.32443022752347809110E-06
   -0.32441793982764931699E-06
    0.31170567213524156852E-06
   -0.34423959124299354561E-06
   -0.34477393998677197398E-06
    0.32557151913351306619E-06
   -0.32250460961897353435E-06
   -0.32247365724294289903E-06
    0.32453080301080020889E-06
   -0.34477760663351848570E-06
    0.32705562207080103608E-05
    0.32704501062992503085E-05
   -0.34488185234764317638E-06
    0.31302924635968836782E-06
   -0.32445824123480076900E-06
   -0.32445247300670547784E-06
    0.31264415982836103037E-06
   -0.34411999553808977186E-06
   -0.34464158367279003068E-06
    0.32487892648445049178E-06
   -0.32163530748478192640E-06
    0.62523512568322397845E-06
    0.32071876311111726477E-06
    0.58667287440837363684E-06
    0.32722699191313555759E-05
    0.32741199436158079317E-05
   -0.34368453837918791924E-06
    0.30991613830734313044E-06
   -0.32450769936499714095E-06
   -0.32444462484683236300E-06
    0.31003706317960013039E-06
   -0.34444253477371823516E-06
   -0.34484557771554719287E-06
    0.32913160800375854278E-06
   -0.32150947369129701210E-06
   -0.32173448928037599334E-06
    0.32986144932102329567E-06
   -0.34483822794342035684E-06
    0.32679305961004311140E-05
    0.32653792824376760296E-05
   -0.34378626187988683993E-06
    0.30892235460484511014E-06
   -0.32446936743373722294E-06
   -0.32446935152136764668E-06
    0.30892230959087080909E-06
   -0.34378625723387359009E-06
   -0.34484411329244437226E-06
    0.33209051351720489456E-06
   -0.32115420505668555665E-06
   -0.32115423256083638254E-06
    0.33209054635335956669E-06
   -0.34484411938637463040E-06
    0.32644788504462707205E-05
    0.32644789139215467474E-05
   -0.34395082299786560975E-06
    0.30536979206231899389E-06
   -0.32450760109747254637E-06
   -0.32459345180668479263E-06
    0.30488382762553724617E-06
   -0.34244463549239663009E-06
   -0.34493669511152310310E-06
    0.34350431534005340170E-06
   -0.31957029902502873326E-06
   -0.31909095710612429263E-06
    0.33944244840177399841E-06
   -0.34496479167209274632E-06
    0.32541711933024273056E-05
    0.32585774190534265579E-05
   -0.34244462839972135351E-06
    0.30488382465601554538E-06
   -0.32459347166304300628E-06
   -0.32450759480460670087E-06
    0.30536979316401462020E-06
   -0.34395079813392193322E-06
   -0.34496479590608661836E-06
    0.33944242528263105471E-06
   -0.31909093081793611402E-06
   -0.31957029775265602102E-06
    0.34350437121202780418E-06
   -0.34493668528616585514E-06
    0.32585773763294781452E-05
    0.32541712434436268205E-05
   -0.34176856690096523762E-06
    0.29751386786466432886E-06
   -0.32469612068475641293E-06
   -0.32469609228196911623E-06
    0.29751389393459313396E-06
   -0.34176851175472787026E-06
   -0.34512458061768405977E-06
    0.35985785288138604712E-06
   -0.31576492212249232351E-06
   -0.31576492488715587670E-06
    0.35985790890784771835E-06
   -0.34512456660901303859E-06
    0.32404676706307328903E-05
    0.32404677207255738684E-05
   -0.34445845272388150185E-06
    0.31216807084099361125E-06
   -0.32448802707029283467E-06
   -0.32453356104843261124E-06
    0.31276529559927940334E-06
   -0.34492518146014513764E-06
    0.58661255376685464123E-06
    0.32225171194110032672E-06
    0.62526359175739624651E-06
   -0.32122626685209500742E-06
    0.32595935154346562001E-06
   -0.34484199381628553169E-06
    0.32721558834479482267E-05
    0.32720828512048381106E-05
   -0.34506666207974960147E-06
    0.31205928421877812809E-06
   -0.32451667352500113059E-06
   -0.32462057437547437497E-06
    0.31237240406450915173E-06
   -0.34451252776463772537E-06
    0.58689986367359096096E-06
    0.32348760167246705346E-06
    0.62539855555678135942E-06
   -0.32129555407296110595E-06
    0.32497976837999395657E-06
   -0.34490846669107944147E-06
    0.32702906914920241365E-05
    0.32732867379801807291E-05
   -0.34518344925842180020E-06
    0.30852049685896701792E-06
   -0.32446205076429641670E-06
   -0.32462593336606840265E-06
    0.30787224311415134835E-06
   -0.34263020165593350598E-06
   -0.34490404333320372943E-06
    0.33694212009289808608E-06
   -0.32115240486135487065E-06
   -0.32030665978111720521E-06
    0.33072216120302563494E-06
   -0.34494512888175847630E-06
    0.32588722663288298622E-05
    0.32668000682155385831E-05
   -0.34536960057862361812E-06
    0.30626916055245799545E-06
   -0.32445836247659814472E-06
   -0.32476830977849667531E-06
    0.30621735049722757769E-06
   -0.34131497593815471156E-06
   -0.34417644097645942834E-06
    0.34347268834116491397E-06
   -0.32093334555499871137E-06
   -0.31914274068403783895E-06
    0.32912510431752052833E-06
   -0.34505279922498266933E-06
    0.32522703140602891243E-05
    0.32679540619656264517E-05
   -0.34515643785017696893E-06
    0.31152572965820241273E-06
   -0.32453479034699776037E-06
   -0.32470292511079456821E-06
    0.31229610929060570596E-06
   -0.34399134492570102977E-06
    0.58750253345818867214E-06
    0.32411291003108714448E-06
    0.62562649757888473231E-06
   -0.32190125720514899512E-06
    0.32209800728372181421E-06
   -0.34496586198209247523E-06
    0.32689921395075632405E-05
    0.32757584157919949366E-05
   -0.34521629557448794396E-06
    0.31131724480339509959E-06
   -0.32454017735017048770E-06
   -0.32476402839474726882E-06
    0.31255067337163155879E-06
   -0.34346475981046350218E-06
    0.58825435007121624747E-06
    0.32404445390730234766E-06
    0.62577366780873274988E-06
   -0.32279726198640234126E-06
    0.31787720660004148927E-06
   -0.34500474270742368165E-06
    0.32685542386932737531E-05
    0.32790049517608843299E-05
   -0.34553702168393061471E-06
    0.30458109482506010822E-06
   -0.32444079325570683589E-06
   -0.32490274238119928812E-06
    0.30538029630689021500E-06
   -0.34004814347030230332E-06
   -0.34312875217858922263E-06
    0.34824522143615636267E-06
   -0.32118645928953227162E-06
   -0.31833823142559939945E-06
    0.32433371172294569915E-06
   -0.34514939484337928620E-06
    0.32473433140254486987E-05
    0.32712875178115848882E-05
   -0.34565488704701707263E-06
    0.30380741356081919542E-06
   -0.32441851713539552633E-06
   -0.32500070849044677965E-06
    0.30547924186127221234E-06
   -0.33908653756986702363E-06
   -0.34207603808943797487E-06
    0.35036234836936599083E-06
   -0.32185663910854624864E-06
   -0.31808291760650951807E-06
    0.31759543119985571111E-06
   -0.34521395743408099901E-06
    0.32451371200873786898E-05
    0.32759590247713849316E-05
   -0.34548085601613452396E-06
    0.30206028278127921899E-06
   -0.32452145926926599895E-06
   -0.32481223780105676306E-06
    0.30014730737078345432E-06
   -0.34005144324093298737E-06
   -0.34436786161275229198E-06
    0.35895581430531370271E-06
   -0.31806269430199795964E-06
   -0.31632025713078182956E-06
    0.34370515188805870822E-06
   -0.34515713168996902779E-06
    0.32395570173273381169E-05
    0.32550833376699382467E-05
   -0.34580519061663735803E-06
    0.29694289687363023914E-06
   -0.32444048619393695630E-06
   -0.32509412201521327264E-06
    0.29624614010607303226E-06
   -0.33709675901180220324E-06
   -0.34244211114002769747E-06
    0.37426457077317244040E-06
   -0.31722326021905801763E-06
   -0.31346170696952873148E-06
    0.34093721789443502583E-06
   -0.34537416855739358464E-06
    0.32240215312727181741E-05
    0.32566184439385209404E-05
   -0.34341323820327051251E-06
    0.28885643485512633578E-06
   -0.32475086732855260694E-06
   -0.32513972009725637779E-06
    0.28668486416069976461E-06
   -0.33678009111446426188E-06
   -0.34465766297684292327E-06
    0.39325542512499913000E-06
   -0.31192553573783755329E-06
   -0.30977312412642962370E-06
    0.37333271301011528377E-06
   -0.34548230090413898135E-06
    0.32092747406240080929E-05
    0.32296020700246563409E-05
   -0.34607481797833054986E-06
    0.27998937479155267313E-06
   -0.32438354348149173443E-06
   -0.32578828401011132667E-06
    0.27797659986172706585E-06
   -0.33025288129622902538E-06
   -0.34009007911303966232E-06
    0.42788975546534281499E-06
   -0.30949711310274104155E-06
   -0.30298543036120309958E-06
    0.36832865067638565623E-06
   -0.34603395970213858831E-06
    0.31726368022602532080E-05
    0.32325001308156722033E-05
   -0.34610418822305030482E-06
    0.29323572005013723955E-06
   -0.32431780937889215887E-06
   -0.32535230678834471993E-06
    0.29432337063088628568E-06
   -0.33445871518982737841E-06
   -0.34012580946457206109E-06
    0.38542709886028444589E-06
   -0.31742140710003645850E-06
   -0.31149499477862265132E-06
    0.33114173776338345455E-06
   -0.34557097825397969669E-06
    0.32128595664504189270E-05
    0.32627958260871489106E-05
   -0.34633982446723328648E-06
    0.29162463741807751546E-06
   -0.32421045340274417333E-06
   -0.32552983485428541274E-06
    0.29438599645046033876E-06
   -0.33264108156286625438E-06
   -0.33804211102057899244E-06
    0.39034597973308835141E-06
   -0.31850855684684158488E-06
   -0.31085812856749831479E-06
    0.31828959930203119788E-06
   -0.34569805527802074148E-06
    0.32081297898701160744E-05
    0.32712290075527008517E-05
   -0.34657178734503064854E-06
    0.27258024849985343462E-06
   -0.32383378837076430569E-06
   -0.32631086088666160655E-06
    0.27462591190591730957E-06
   -0.32506388687318206038E-06
   -0.33479041050353054152E-06
    0.45080203475115470044E-06
   -0.30985209509581489922E-06
   -0.29895566421371611953E-06
    0.34480721647369898145E-06
   -0.34648848614686639571E-06
    0.31500121116124059946E-05
    0.32463480468730323669E-05
   -0.34706824807823523961E-06
    0.26986274997540515983E-06
   -0.32343639192990265465E-06
   -0.32662361194946275438E-06
    0.27492092662619562910E-06
   -0.32181129582306348347E-06
   -0.33053532408528126120E-06
    0.45981926515402317877E-06
   -0.31205185064412025480E-06
   -0.29817815867428494752E-06
    0.31932459573866780924E-06
   -0.34675910110628101977E-06
    0.31421235123059056404E-05
    0.32623402503494885291E-05
   -0.34492517909996369251E-06
    0.31276533881166242999E-06
   -0.32453361478840422729E-06
   -0.32448794221918604244E-06
    0.31216807272579131432E-06
   -0.34445841177481847350E-06
   -0.34484200042473351285E-06
    0.32595932531869781573E-06
   -0.32122630834681867209E-06
    0.62526360709896636031E-06
    0.32225166978010446326E-06
    0.58661255710620516754E-06
    0.32720827692020262990E-05
    0.32721559509489808459E-05
   -0.34263023973214458622E-06
    0.30787221917691592623E-06
   -0.32462597620164601692E-06
   -0.32446202910220705513E-06
    0.30852048262982909655E-06
   -0.34518343019394796562E-06
   -0.34494514656495059044E-06
    0.33072208522615232333E-06
   -0.32030666961986779108E-06
   -0.32115244703253736409E-06
    0.33694218831068670300E-06
   -0.34490405495126618795E-06
    0.32668002251502637232E-05
    0.32588725672930602233E-05
   -0.34451254337191408085E-06
    0.31237243139842414292E-06
   -0.32462060653234711047E-06
   -0.32451662700881490344E-06
    0.31205924408765648866E-06
   -0.34506659033800894475E-06
   -0.34490849284922445162E-06
    0.32497975005864208483E-06
   -0.32129559216878507526E-06
    0.62539856525241768203E-06
    0.32348758514444650844E-06
    0.58689986401204457438E-06
    0.32732866699377941067E-05
    0.32702907485610985037E-05
   -0.34131497839670415751E-06
    0.30621732863747248996E-06
   -0.32476835685341638059E-06
   -0.32445831222701981132E-06
    0.30626914679334019176E-06
   -0.34536961174796793761E-06
   -0.34505280558671028174E-06
    0.32912502397733968335E-06
   -0.31914271606121140822E-06
   -0.32093339250095008007E-06
    0.34347274993362259490E-06
   -0.34417645053379035844E-06
    0.32679542091680578008E-05
    0.32522705976577038650E-05
   -0.34005144313082119239E-06
    0.30014733776250713155E-06
   -0.32481227537976399464E-06
   -0.32452148818629155073E-06
    0.30206026845517010708E-06
   -0.34548082410005716174E-06
   -0.34515717110478899680E-06
    0.34370511471631687353E-06
   -0.31632028588815527625E-06
   -0.31806272142247113016E-06
    0.35895588597385536031E-06
   -0.34436785124077413702E-06
    0.32550832835467991538E-05
    0.32395570751366163655E-05
   -0.33678009255356265135E-06
    0.28668490455908417463E-06
   -0.32513979043219876417E-06
   -0.32475088365231232140E-06
    0.28885642633104325244E-06
   -0.34341319657896547117E-06
   -0.34548232010850888339E-06
    0.37333265989759142315E-06
   -0.30977313450401693670E-06
   -0.31192559941721215093E-06
    0.39325547948683671317E-06
   -0.34465768678773326986E-06
    0.32296020104074557231E-05
    0.32092748230768214043E-05
   -0.33709678004860347869E-06
    0.29624615784951391173E-06
   -0.32509415105886156794E-06
   -0.32444047251116768492E-06
    0.29694290980563625171E-06
   -0.34580515811146282174E-06
   -0.34537414111357887434E-06
    0.34093719657336044061E-06
   -0.31346173319352541814E-06
   -0.31722329004431358831E-06
    0.37426462681099478222E-06
   -0.34244208810593533200E-06
    0.32566183713521151111E-05
    0.32240215875688025556E-05
   -0.33025288419509515525E-06
    0.27797661868235779674E-06
   -0.32578833420580460034E-06
   -0.32438354852432848511E-06
    0.27998935552746255433E-06
   -0.34607482202559516164E-06
   -0.34603397801009542809E-06
    0.36832863267044413126E-06
   -0.30298544480363784017E-06
   -0.30949715509962490675E-06
    0.42788981926724517538E-06
   -0.34009005485675345168E-06
    0.32325000874687814563E-05
    0.31726368742440382939E-05
   -0.34399136045973333457E-06
    0.31229613569321088332E-06
   -0.32470292994562384985E-06
   -0.32453477381012715042E-06
    0.31152568285134274781E-06
   -0.34515640257650319663E-06
   -0.34496587666343815255E-06
    0.32209798310617488638E-06
   -0.32190128841182927599E-06
    0.62562652188890660724E-06
    0.32411291419659242056E-06
    0.58750254021591355769E-06
    0.32757583650431932776E-05
    0.32689921977652162621E-05
   -0.34004818031388668652E-06
    0.30538024310532900382E-06
   -0.32490278166941244841E-06
   -0.32444079181425157724E-06
    0.30458109156329663521E-06
   -0.34553699978024628076E-06
   -0.34514940715157592042E-06
    0.32433360390249172824E-06
   -0.31833822512156468338E-06
   -0.32118650049455817460E-06
    0.34824529611672266969E-06
   -0.34312874698067895051E-06
    0.32712876895576687515E-05
    0.32473435924401301448E-05
   -0.34346477235617563928E-06
    0.31255067180769538890E-06
   -0.32476408062177701009E-06
   -0.32454015206505566590E-06
    0.31131725454231115298E-06
   -0.34521629047319040863E-06
   -0.34500472679393443371E-06
    0.31787717900501048676E-06
   -0.32279730329222670021E-06
    0.62577369123734346896E-06
    0.32404446190892687999E-06
    0.58825433931033329094E-06
    0.32790048728575943477E-05
    0.32685542980229596249E-05
   -0.33908657287163936695E-06
    0.30547918698677757284E-06
   -0.32500074248687517680E-06
   -0.32441853460433822682E-06
    0.30380737682598309592E-06
   -0.34565485904652368025E-06
   -0.34521396791664650501E-06
    0.31759532269296623974E-06
   -0.31808293553282242857E-06
   -0.32185664841370265897E-06
    0.35036242795560159184E-06
   -0.34207599296769032505E-06
    0.32759591910590643925E-05
    0.32451373878783683530E-05
   -0.33445872399103941919E-06
    0.29432334951738596509E-06
   -0.32535233373308364723E-06
   -0.32431781830793015348E-06
    0.29323571489973106328E-06
   -0.34610414069162483959E-06
   -0.34557098965091001653E-06
    0.33114173392923047941E-06
   -0.31149497049675551628E-06
   -0.31742146979836833809E-06
    0.38542713886027712651E-06
   -0.34012579010189127769E-06
    0.32627957316586636125E-05
    0.32128596160913497718E-05
   -0.32506392294436472228E-06
    0.27462592331371267984E-06
   -0.32631092965201731920E-06
   -0.32383381350644689843E-06
    0.27258025447233309123E-06
   -0.34657176345189319102E-06
   -0.34648848837273980857E-06
    0.34480716186236683780E-06
   -0.29895569790923325637E-06
   -0.30985212639484305304E-06
    0.45080211930754019032E-06
   -0.33479038997764418737E-06