# vtk DataFile Version 3.0
LAPLACIEN  2D
ASCII
DATASET UNSTRUCTURED_GRID
 POINTS        1857  float
   3.1250000000000000E-002  0.93750000000000000        0.0000000000000000     
   6.2500000000000000E-002  0.93750000000000000        0.0000000000000000     
   6.2500000000000000E-002  0.96875000000000000        0.0000000000000000     
   1.8749999999999999E-002  0.95625000000000004        0.0000000000000000     
   4.0625000000000001E-002  0.95937499999999998        0.0000000000000000     
   4.3749999999999997E-002  0.98124999999999996        0.0000000000000000     
   2.1874999999999999E-002  0.97812500000000002        0.0000000000000000     
   9.3750000000000000E-002  0.93750000000000000        0.0000000000000000     
  0.12500000000000000       0.93750000000000000        0.0000000000000000     
  0.12500000000000000       0.96875000000000000        0.0000000000000000     
   8.1250000000000003E-002  0.95625000000000004        0.0000000000000000     
  0.10312499999999999       0.95937499999999998        0.0000000000000000     
  0.10625000000000000       0.98124999999999996        0.0000000000000000     
   8.4375000000000006E-002  0.97812500000000002        0.0000000000000000     
   3.1250000000000000E-002  0.87500000000000000        0.0000000000000000     
   6.2500000000000000E-002  0.87500000000000000        0.0000000000000000     
   6.2500000000000000E-002  0.90625000000000000        0.0000000000000000     
   1.8749999999999999E-002  0.89375000000000004        0.0000000000000000     
   4.0625000000000001E-002  0.89687499999999998        0.0000000000000000     
   4.3749999999999997E-002  0.91874999999999996        0.0000000000000000     
   2.1874999999999999E-002  0.91562500000000002        0.0000000000000000     
   9.3750000000000000E-002  0.87500000000000000        0.0000000000000000     
  0.12500000000000000       0.87500000000000000        0.0000000000000000     
  0.12500000000000000       0.90625000000000000        0.0000000000000000     
   8.1250000000000003E-002  0.89375000000000004        0.0000000000000000     
  0.10312499999999999       0.89687499999999998        0.0000000000000000     
  0.10625000000000000       0.91874999999999996        0.0000000000000000     
   8.4375000000000006E-002  0.91562500000000002        0.0000000000000000     
  0.15625000000000000       0.93750000000000000        0.0000000000000000     
  0.18750000000000000       0.93750000000000000        0.0000000000000000     
  0.18750000000000000       0.96875000000000000        0.0000000000000000     
  0.14374999999999999       0.95625000000000004        0.0000000000000000     
  0.16562499999999999       0.95937499999999998        0.0000000000000000     
  0.16875000000000001       0.98124999999999996        0.0000000000000000     
  0.14687500000000001       0.97812500000000002        0.0000000000000000     
  0.21875000000000000       0.93750000000000000        0.0000000000000000     
  0.25000000000000000       0.93750000000000000        0.0000000000000000     
  0.25000000000000000       0.96875000000000000        0.0000000000000000     
  0.20624999999999999       0.95625000000000004        0.0000000000000000     
  0.22812499999999999       0.95937499999999998        0.0000000000000000     
  0.23125000000000001       0.98124999999999996        0.0000000000000000     
  0.20937500000000001       0.97812500000000002        0.0000000000000000     
  0.15625000000000000       0.87500000000000000        0.0000000000000000     
  0.18750000000000000       0.87500000000000000        0.0000000000000000     
  0.18750000000000000       0.90625000000000000        0.0000000000000000     
  0.14374999999999999       0.89375000000000004        0.0000000000000000     
  0.16562499999999999       0.89687499999999998        0.0000000000000000     
  0.16875000000000001       0.91874999999999996        0.0000000000000000     
  0.14687500000000001       0.91562500000000002        0.0000000000000000     
  0.21875000000000000       0.87500000000000000        0.0000000000000000     
  0.25000000000000000       0.87500000000000000        0.0000000000000000     
  0.25000000000000000       0.90625000000000000        0.0000000000000000     
  0.20624999999999999       0.89375000000000004        0.0000000000000000     
  0.22812499999999999       0.89687499999999998        0.0000000000000000     
  0.23125000000000001       0.91874999999999996        0.0000000000000000     
  0.20937500000000001       0.91562500000000002        0.0000000000000000     
   3.1250000000000000E-002  0.81250000000000000        0.0000000000000000     
   6.2500000000000000E-002  0.81250000000000000        0.0000000000000000     
   6.2500000000000000E-002  0.84375000000000000        0.0000000000000000     
   1.8749999999999999E-002  0.83125000000000004        0.0000000000000000     
   4.0625000000000001E-002  0.83437499999999998        0.0000000000000000     
   4.3749999999999997E-002  0.85624999999999996        0.0000000000000000     
   2.1874999999999999E-002  0.85312500000000002        0.0000000000000000     
   9.3750000000000000E-002  0.81250000000000000        0.0000000000000000     
  0.12500000000000000       0.81250000000000000        0.0000000000000000     
  0.12500000000000000       0.84375000000000000        0.0000000000000000     
   8.1250000000000003E-002  0.83125000000000004        0.0000000000000000     
  0.10312499999999999       0.83437499999999998        0.0000000000000000     
  0.10625000000000000       0.85624999999999996        0.0000000000000000     
   8.4375000000000006E-002  0.85312500000000002        0.0000000000000000     
   3.1250000000000000E-002  0.75000000000000000        0.0000000000000000     
   6.2500000000000000E-002  0.75000000000000000        0.0000000000000000     
   6.2500000000000000E-002  0.78125000000000000        0.0000000000000000     
   1.8749999999999999E-002  0.76875000000000004        0.0000000000000000     
   4.0625000000000001E-002  0.77187499999999998        0.0000000000000000     
   4.3749999999999997E-002  0.79374999999999996        0.0000000000000000     
   2.1874999999999999E-002  0.79062500000000002        0.0000000000000000     
   9.3750000000000000E-002  0.75000000000000000        0.0000000000000000     
  0.12500000000000000       0.75000000000000000        0.0000000000000000     
  0.12500000000000000       0.78125000000000000        0.0000000000000000     
   8.1250000000000003E-002  0.76875000000000004        0.0000000000000000     
  0.10312499999999999       0.77187499999999998        0.0000000000000000     
  0.10625000000000000       0.79374999999999996        0.0000000000000000     
   8.4375000000000006E-002  0.79062500000000002        0.0000000000000000     
  0.15625000000000000       0.81250000000000000        0.0000000000000000     
  0.18750000000000000       0.81250000000000000        0.0000000000000000     
  0.18750000000000000       0.84375000000000000        0.0000000000000000     
  0.14374999999999999       0.83125000000000004        0.0000000000000000     
  0.16562499999999999       0.83437499999999998        0.0000000000000000     
  0.16875000000000001       0.85624999999999996        0.0000000000000000     
  0.14687500000000001       0.85312500000000002        0.0000000000000000     
  0.21875000000000000       0.81250000000000000        0.0000000000000000     
  0.25000000000000000       0.81250000000000000        0.0000000000000000     
  0.25000000000000000       0.84375000000000000        0.0000000000000000     
  0.20624999999999999       0.83125000000000004        0.0000000000000000     
  0.22812499999999999       0.83437499999999998        0.0000000000000000     
  0.23125000000000001       0.85624999999999996        0.0000000000000000     
  0.20937500000000001       0.85312500000000002        0.0000000000000000     
  0.15625000000000000       0.75000000000000000        0.0000000000000000     
  0.18750000000000000       0.75000000000000000        0.0000000000000000     
  0.18750000000000000       0.78125000000000000        0.0000000000000000     
  0.14374999999999999       0.76875000000000004        0.0000000000000000     
  0.16562499999999999       0.77187499999999998        0.0000000000000000     
  0.16875000000000001       0.79374999999999996        0.0000000000000000     
  0.14687500000000001       0.79062500000000002        0.0000000000000000     
  0.21875000000000000       0.75000000000000000        0.0000000000000000     
  0.25000000000000000       0.75000000000000000        0.0000000000000000     
  0.25000000000000000       0.78125000000000000        0.0000000000000000     
  0.20624999999999999       0.76875000000000004        0.0000000000000000     
  0.22812499999999999       0.77187499999999998        0.0000000000000000     
  0.23125000000000001       0.79374999999999996        0.0000000000000000     
  0.20937500000000001       0.79062500000000002        0.0000000000000000     
  0.28125000000000000       0.93750000000000000        0.0000000000000000     
  0.31250000000000000       0.93750000000000000        0.0000000000000000     
  0.31250000000000000       0.96875000000000000        0.0000000000000000     
  0.26874999999999999       0.95625000000000004        0.0000000000000000     
  0.29062500000000002       0.95937499999999998        0.0000000000000000     
  0.29375000000000001       0.98124999999999996        0.0000000000000000     
  0.27187499999999998       0.97812500000000002        0.0000000000000000     
  0.34375000000000000       0.93750000000000000        0.0000000000000000     
  0.37500000000000000       0.93750000000000000        0.0000000000000000     
  0.37500000000000000       0.96875000000000000        0.0000000000000000     
  0.33124999999999999       0.95625000000000004        0.0000000000000000     
  0.35312500000000002       0.95937499999999998        0.0000000000000000     
  0.35625000000000001       0.98124999999999996        0.0000000000000000     
[...]
 CELL_DATA        3584
 SCALARS Tumor_cells float
 LOOKUP_TABLE default
   -0.17928577597628539645E-06
    0.14087815635099513664E-06
   -0.17866508019288199288E-06
   -0.17866507799031667680E-06
    0.14087813720887244182E-06
   -0.17928576749290939305E-06
    0.27286757493186956545E-06
    0.14130358731864849082E-06
    0.28944328456805648294E-06
    0.28944326510345095446E-06
    0.14130356459468170124E-06
    0.27286756440766847257E-06
    0.14487029977652173612E-05
    0.14487030286798140003E-05
   -0.17920467039215562434E-06
    0.14069708105820689498E-06
   -0.17866457101890129965E-06
   -0.17865491394930344993E-06
    0.14070692132033636803E-06
   -0.17930664369530624572E-06
    0.27274385549307487260E-06
    0.14148883739468285824E-06
    0.28940927840934362413E-06
   -0.17839078908416447720E-06
    0.14185462445307316680E-06
   -0.17926291167467013668E-06
    0.14485835606905083145E-05
    0.14483458418426255404E-05
   -0.17930665622040610076E-06
    0.14070693313321333392E-06
   -0.17865489458598095967E-06
   -0.17866455290579006924E-06
    0.14069708953226423893E-06
   -0.17920464978573816860E-06
   -0.17926291489456350056E-06
    0.14185462363524946252E-06
   -0.17839077711069969951E-06
    0.28940928102254111627E-06
    0.14148882774165888385E-06
    0.27274385353875566983E-06
    0.14483457368653113488E-05
    0.14485834673194746178E-05
   -0.17924743859469944098E-06
    0.14046584604417012701E-06
   -0.17864846975755480202E-06
   -0.17864847433340812755E-06
    0.14046584816710778155E-06
   -0.17924742152197789502E-06
   -0.17927674927142857187E-06
    0.14213227984224135934E-06
   -0.17838134734186353224E-06
   -0.17838134883041234045E-06
    0.14213231736519622060E-06
   -0.17927673719821851780E-06
    0.14480667061650578012E-05
    0.14480667091266953722E-05
   -0.17915352975512233134E-06
    0.14049603075451401917E-06
   -0.17866246000101365000E-06
   -0.17865269039621135293E-06
    0.14054288414072321431E-06
   -0.17932827798010682780E-06
    0.27263580135383509616E-06
    0.14173798356169575045E-06
    0.28938475480501815553E-06
   -0.17817576575312265718E-06
    0.14240479036115223313E-06
   -0.17923650842512183351E-06
    0.14483913449729548964E-05
    0.14480367376474949709E-05
   -0.17916570792892417231E-06
    0.14031696603869832229E-06
   -0.17865746296024910937E-06
   -0.17866073206120622501E-06
    0.14041183114661732285E-06
   -0.17934693367746446167E-06
    0.27256317595160904088E-06
    0.14203677593703823909E-06
    0.28937351784926059350E-06
   -0.17799655369157216842E-06
    0.14286185705643961493E-06
   -0.17925480265215956694E-06
    0.14481251638912388169E-05
    0.14478304391097986767E-05
   -0.17920455095369308739E-06
    0.14009403449009135870E-06
   -0.17863354528683116452E-06
   -0.17864193841797595757E-06
    0.14012058642440172386E-06
   -0.17921379793238664157E-06
   -0.17928667739945015223E-06
    0.14277210265341781436E-06
   -0.17819383971866156939E-06
   -0.17820197528228552045E-06
    0.14298494318044915738E-06
   -0.17928593534628476118E-06
    0.14475409821201403134E-05
    0.14475579913993306039E-05
   -0.17928149423565729235E-06
    0.13969890595588757189E-06
   -0.17860643491534736286E-06
   -0.17865047247628886942E-06
    0.13966993134441274876E-06
   -0.17907557718886826569E-06
   -0.17929996156765814975E-06
    0.14383584174689586251E-06
   -0.17800801791282037865E-06
   -0.17795050709503470261E-06
    0.14368115915393049913E-06
   -0.17930131910072181709E-06
    0.14467311493080858650E-05
    0.14471383139756915824E-05
   -0.17932826789517786840E-06
    0.14054286646023813805E-06
   -0.17865269292716914568E-06
   -0.17866243498666609174E-06
    0.14049600865178014546E-06
   -0.17915352778879929528E-06
   -0.17923648765250497270E-06
    0.14240479488430261282E-06
   -0.17817576964312329386E-06
    0.28938473767575991320E-06
    0.14173798628741736094E-06
    0.27263580263845590482E-06
    0.14480367254436380256E-05
    0.14483913600306786580E-05
   -0.17921381451723237709E-06
    0.14012057626729189895E-06
   -0.17864192886857439405E-06
   -0.17863353424714223121E-06
    0.14009402513293030178E-06
   -0.17920452638547513546E-06
   -0.17928594710864312039E-06
    0.14298491626220340896E-06
   -0.17820198317536532169E-06
   -0.17819383457671060834E-06
    0.14277208604822589746E-06
   -0.17928667244377565939E-06
    0.14475580789906646312E-05
    0.14475411002307945846E-05
   -0.17934694008251555940E-06
    0.14041184750939285717E-06
   -0.17866074154494687972E-06
   -0.17865744992581746407E-06
    0.14031693021409751278E-06
   -0.17916569881337833716E-06
   -0.17925480042313201514E-06
    0.14286185037128700352E-06
   -0.17799655141198109071E-06
    0.28937352130023984492E-06
    0.14203675427667640122E-06
    0.27256318269979019446E-06
    0.14478304294900137309E-05
    0.14481251737759155292E-05
   -0.17907560842252699591E-06
    0.13966990687157036259E-06
   -0.17865045584538656442E-06
   -0.17860643838443644339E-06
    0.13969889485329312795E-06
   -0.17928145959749156160E-06
   -0.17930131753243600068E-06
    0.14368113064648463203E-06
   -0.17795049387196437304E-06
   -0.17800801347677672321E-06
    0.14383583612394543685E-06
   -0.17929997628374766273E-06
    0.14471384238227140195E-05
    0.14467312631812486004E-05
   -0.17911975969943849294E-06
    0.13943358148460119941E-06
   -0.17861456858436981328E-06
   -0.17861455817601741660E-06
    0.13943355895638740323E-06
   -0.17911976808943247556E-06
   -0.17930135216562991273E-06
    0.14427503197995205044E-06
   -0.17786151088096302653E-06
   -0.17786152363803849781E-06
    0.14427503699338693757E-06
   -0.17930136001871363876E-06
    0.14465877001002564143E-05
    0.14465877030104064524E-05
   -0.17921350059372728645E-06
    0.13858941413787620228E-06
   -0.17855730201822673193E-06
   -0.17861809453065456283E-06
    0.13847274943261060445E-06
   -0.17881765727471163794E-06
   -0.17932253174444051832E-06
    0.14656325128518574705E-06
   -0.17746758545587656145E-06
   -0.17734341914616589775E-06
    0.14572252750276002434E-06
   -0.17932756607810884223E-06
    0.14449397162774007449E-05
    0.14456445692129756057E-05
   -0.17881765099498909680E-06
    0.13847276244344131780E-06
   -0.17861809100791108022E-06
   -0.17855729314909863653E-06
    0.13858940209793680828E-06
   -0.17921348956199694236E-06
   -0.17932756461948901677E-06
    0.14572254121384820118E-06
   -0.17734340451748409688E-06
   -0.17746758895053086981E-06
    0.14656324867154935950E-06
   -0.17932252387767281620E-06
    0.14456445677601294479E-05
    0.14449397341144606820E-05
   -0.17874203656840373394E-06
    0.13671634787493093647E-06
   -0.17852760941458144734E-06
   -0.17852759983961192961E-06
    0.13671636411035744945E-06
   -0.17874202248972358678E-06
   -0.17936532862617560829E-06
    0.14982592435114504885E-06
   -0.17652609260944003826E-06
   -0.17652610578985622383E-06
    0.14982592970922671019E-06
   -0.17936533025635197811E-06
    0.14427486954709777441E-05
    0.14427486869833942104E-05
   -0.17926182398976538449E-06
    0.14020503635432015719E-06
   -0.17864958342138769226E-06
   -0.17868056813869328559E-06
    0.14034692095615324417E-06
   -0.17935519785399331501E-06
    0.27255035312341672256E-06
    0.14234352154695638842E-06
    0.28938085533758126784E-06
   -0.17789377388703091680E-06
    0.14307580594503281716E-06
   -0.17930043692520534416E-06
    0.14478110686216233469E-05
    0.14477991558954450485E-05
   -0.17942382221351137859E-06
    0.14018161372559124279E-06
   -0.17864079145924474773E-06
   -0.17871060991293258939E-06
    0.14025475001181891604E-06
   -0.17924906756337796896E-06
    0.27261191534253103371E-06
    0.14259163760997173595E-06
    0.28941004180013404185E-06
   -0.17790899577922924711E-06
    0.14286872176640475527E-06
   -0.17931443087601268225E-06
    0.14475126145040239135E-05
    0.14479897444246832703E-05
   -0.17950015086547600520E-06
    0.13934159608523287052E-06
   -0.17856770844802197142E-06
   -0.17867999610349516529E-06
    0.13918473947655332725E-06
   -0.17882370081261192119E-06
   -0.17931466626036654004E-06
    0.14526167770047365571E-06
   -0.17786394914545703464E-06
   -0.17764609142812696718E-06
    0.14397206022108594195E-06
   -0.17932231783016643785E-06
    0.14456907518156046317E-05
    0.14469574661025722495E-05
   -0.17959466382115808546E-06
    0.13882472273930046591E-06
   -0.17852642950540694505E-06
   -0.17872926178452271548E-06
    0.13879154412716283610E-06
   -0.17849919136898983322E-06
   -0.17914519629527132123E-06
    0.14656553893735350834E-06
   -0.17781279229175810846E-06
   -0.17734954999570643503E-06
    0.14361290080163276032E-06
   -0.17934532389361462681E-06
    0.14446338672185735016E-05
    0.14471433790387136427E-05
   -0.17946072396844884271E-06
    0.14006653875975289670E-06
   -0.17863403529000748913E-06
   -0.17874539500873159314E-06
    0.14023748733787276727E-06
   -0.17911224979559395921E-06
    0.27274094766112397210E-06
    0.14271817176057508279E-06
    0.28945807084697237060E-06
   -0.17805681584212503466E-06
    0.14227820516895194558E-06
   -0.17932667585521294356E-06
    0.14473047369857196870E-05
    0.14483829778463667055E-05
   -0.17948425900357173364E-06
    0.14002900263855566284E-06
   -0.17863085112179642463E-06
   -0.17877770571216370579E-06
    0.14029823294743186626E-06
   -0.17897256427860700734E-06
    0.27290257363428074853E-06
    0.14270636530548916374E-06
    0.28948670543420443331E-06
   -0.17827685598485929527E-06
    0.14142093498456497722E-06
   -0.17933498678768324086E-06
    0.14472343885583669829E-05
    0.14488998344297477152E-05
   -0.17967705632901818863E-06
    0.13844600291541704222E-06
   -0.17849545654294202882E-06
   -0.17878664701918332567E-06
    0.13859280906325067423E-06
   -0.17817845029546281379E-06
   -0.17890211602173914699E-06
    0.14751534745235902662E-06
   -0.17788044386619478560E-06
   -0.17714106406090082686E-06
    0.14260792587762557515E-06
   -0.17936595870637417897E-06
    0.14438439807970132448E-05
    0.14476796481448316198E-05
   -0.17972887569832435307E-06
    0.13828384579108379022E-06
   -0.17848075081810797807E-06
   -0.17883910858176856448E-06
    0.13861697078370802307E-06
   -0.17792867325568010753E-06
   -0.17865812179932331319E-06
    0.14793411253052427901E-06
   -0.17805141478632199671E-06
   -0.17706998348633053240E-06
    0.14121813576213782705E-06
   -0.17937973367122061137E-06
    0.14434897659025784679E-05
    0.14484297196502412468E-05
   -0.17967265725838517388E-06
    0.13780300868248293612E-06
   -0.17846407388062484714E-06
   -0.17866719376552752584E-06
    0.13734220610689075970E-06
   -0.17824585531845198605E-06
   -0.17919251542448648136E-06
    0.14966933676449582310E-06
   -0.17710163549908615190E-06
   -0.17664697226510483289E-06
    0.14652997747779466101E-06
   -0.17936748985180512531E-06
    0.14425983456299837115E-05
    0.14450886793561731761E-05
   -0.17987355306676303728E-06
    0.13662002955703715017E-06
   -0.17835783687900521373E-06
   -0.17876510578123459084E-06
    0.13640797329211269989E-06
   -0.17751386014853985895E-06
   -0.17875407426192425696E-06
    0.15273693466243767923E-06
   -0.17690935055871591396E-06
   -0.17591982409666294976E-06
    0.14589698370803565186E-06
   -0.17941356006239410100E-06
    0.14401035352354948494E-05
    0.14453467204844279052E-05
   -0.17933502140290809009E-06
    0.13465734750549801405E-06
   -0.17832087094185212224E-06
   -0.17860293184104176652E-06
    0.13412606177311246369E-06
   -0.17755473944701164251E-06
   -0.17926947026675571517E-06
    0.15658314072858406992E-06
   -0.17562169792290448943E-06
   -0.17505167409330132110E-06
    0.15248974649953539371E-06
   -0.17944101700240383385E-06
    0.14377621703400922136E-05
    0.14410224932074913211E-05
   -0.18033105189501561832E-06
    0.13260307626847759852E-06
   -0.17805058178006506606E-06
   -0.17883329274092483657E-06
    0.13202937055268811406E-06
   -0.17591422958131625631E-06
   -0.17826428661265775865E-06
    0.16355475634407777926E-06
   -0.17509851369605364433E-06
   -0.17334797894661199122E-06
    0.15137698860581212752E-06
   -0.17955298320760259825E-06
    0.14318834536887618897E-05
    0.14415371029252005347E-05
   -0.18004378945607919577E-06
    0.13578021000230041872E-06
   -0.17828208755629233497E-06
   -0.17887729288857262887E-06
    0.13594698742298300051E-06
   -0.17684179784533411122E-06
   -0.17822946967925258956E-06
    0.15497007195648311368E-06
   -0.17697455396191740360E-06
   -0.17540312941061022316E-06
    0.14382920662161298537E-06
   -0.17945523559921778182E-06
    0.14383048950676238584E-05
    0.14463580740074000940E-05
   -0.18014596577187090561E-06
    0.13543655377402256203E-06
   -0.17824682100079844148E-06
   -0.17897407067384863144E-06
    0.13596361145308634500E-06
   -0.17636649504575995056E-06
   -0.17775653581522786808E-06
    0.15594276345648211852E-06
   -0.17725309248021314867E-06
   -0.17521571497957493594E-06
    0.14115184811327561868E-06
   -0.17948189466408826132E-06
    0.14375411089365711484E-05
    0.14477301581901426424E-05
   -0.18067833034097332893E-06
    0.13092989439418950077E-06
   -0.17788494956008505949E-06
   -0.17906500186864496579E-06
    0.13122580382327238930E-06
   -0.17456279589809036978E-06
   -0.17710637081519948038E-06
    0.16814483868821021562E-06
   -0.17524453056827034877E-06
   -0.17225731345286084720E-06
    0.14642308732011173523E-06
   -0.17964697033767700753E-06
    0.14282322909626778992E-05
    0.14438512068974181552E-05
   -0.18086139532250167771E-06
    0.13036512119112968101E-06
   -0.17781118516252136229E-06
   -0.17923981668027153898E-06
    0.13131012693166068038E-06
   -0.17369597655603344284E-06
   -0.17617197282145443346E-06
    0.16989550631446625855E-06
   -0.17580609313109917960E-06
   -0.17196735581667018894E-06
    0.14105610139879095825E-06
   -0.17969933772520420325E-06
    0.14269727758112882429E-05
    0.14464966993410055439E-05
   -0.17935519915028028198E-06
    0.14034693841021924032E-06
   -0.17868058764531384525E-06
   -0.17864954628767549285E-06
    0.14020504410960191218E-06
   -0.17926179573593068445E-06
   -0.17930043692256479835E-06
    0.14307581106414832582E-06
   -0.17789379282271617108E-06
    0.28938087155049406861E-06
    0.14234350080420659754E-06
    0.27255036542067016755E-06
    0.14477991409957208837E-05
    0.14478110846072035160E-05
   -0.17882372297058592206E-06
    0.13918473991346597105E-06
   -0.17868001608417478689E-06
   -0.17856769967624080508E-06
    0.13934158570233593148E-06
   -0.17950012748737743418E-06
   -0.17932232828107522564E-06
    0.14397202916954657458E-06
   -0.17764609407062012612E-06
   -0.17786398211133165274E-06
    0.14526168053188173755E-06
   -0.17931467504088265425E-06
    0.14469575447796980821E-05
    0.14456908669224018216E-05
   -0.17924907525842466998E-06
    0.14025475559338005612E-06
   -0.17871063994988345175E-06
   -0.17864077758604928786E-06
    0.14018158117543211016E-06
   -0.17942380101126696613E-06
   -0.17931444264870449930E-06
    0.14286873303431776944E-06
   -0.17790899522487956152E-06
    0.28941004711196299265E-06
    0.14259161624853317206E-06
    0.27261191777346222925E-06
    0.14479897335582614909E-05
    0.14475126220775068546E-05
   -0.17849919098801836869E-06
    0.13879153592349910828E-06
   -0.17872927434255182337E-06
   -0.17852641454053829681E-06
    0.13882471868830660628E-06
   -0.17959466662156253797E-06
   -0.17934531512670379404E-06
    0.14361287248412503192E-06
   -0.17734954581094452663E-06
   -0.17781280879732976575E-06
    0.14656554569941782309E-06
   -0.17914519289446643702E-06
    0.14471434509453782847E-05
    0.14446339712227846914E-05
   -0.17824586168236838454E-06
    0.13734223047760217472E-06
   -0.17866720056580358796E-06
   -0.17846409374063790208E-06
    0.13780300788519009287E-06
   -0.17967265751407061875E-06
   -0.17936749201170478303E-06
    0.14652998563113189980E-06
   -0.17664698142919687911E-06
   -0.17710165149532064556E-06
    0.14966936054340164973E-06
   -0.17919252112932680829E-06
    0.14450886885912268633E-05
    0.14425983523682834846E-05
   -0.17755473218258984797E-06
    0.13412608920123398282E-06
   -0.17860295372821112852E-06
   -0.17832088289458886552E-06
    0.13465733671654258570E-06
   -0.17933500740155950992E-06
   -0.17944104264262549268E-06
    0.15248972373089955402E-06
   -0.17505167537876429226E-06
   -0.17562172217924273965E-06
    0.15658314066304714556E-06
   -0.17926949208522689350E-06
    0.14410224934917032739E-05
    0.14377621908135451636E-05
   -0.17751385043364896867E-06
    0.13640800115462672803E-06
   -0.17876510723693157030E-06
   -0.17835783848051573869E-06
    0.13662003870589366771E-06
   -0.17987354111123267347E-06
   -0.17941355112110999521E-06
    0.14589700324274414169E-06
   -0.17591984306480364784E-06
   -0.17690937149036477233E-06
    0.15273694179218832907E-06
   -0.17875405414389061967E-06
    0.14453467040668948143E-05
    0.14401035510532403105E-05
   -0.17591421528904484009E-06
    0.13202938211517168518E-06
   -0.17883330776789481707E-06
   -0.17805058739292952632E-06
    0.13260305690194194171E-06
   -0.18033106661119158160E-06
   -0.17955298618249927896E-06
    0.15137699718835123096E-06
   -0.17334797686717347546E-06
   -0.17509852040766356807E-06
    0.16355476218255992058E-06
   -0.17826428018489551061E-06
    0.14415371058789649345E-05
    0.14318834797596878643E-05
   -0.17911226527707446061E-06
    0.14023751039199579435E-06
   -0.17874538546133125084E-06
   -0.17863402778534801309E-06
    0.14006651236243087559E-06
   -0.17946070914115181822E-06
   -0.17932667308198374322E-06
    0.14227821589026506976E-06
   -0.17805682703730020621E-06
    0.28945807463728509092E-06
    0.14271816690632309745E-06
    0.27274095113342378396E-06
    0.14483829751227168053E-05
    0.14473047540364281172E-05
   -0.17817845188438899671E-06
    0.13859278934968927176E-06
   -0.17878666318135247367E-06
   -0.17849545793686301608E-06
    0.13844601081549860309E-06
   -0.17967704986465535577E-06
   -0.17936596608203188710E-06
    0.14260788356019162018E-06
   -0.17714106689372866827E-06
   -0.17788046725763174325E-06
    0.14751536653813838681E-06
   -0.17890210221597251251E-06
    0.14476797466393821142E-05
    0.14438440912372516066E-05
   -0.17897256746412335376E-06
    0.14029824340836338316E-06
   -0.17877772075687606192E-06
   -0.17863084516974744094E-06
    0.14002901303268073828E-06
   -0.17948426423045225309E-06
   -0.17933497843242729702E-06
    0.14142094756290619988E-06
   -0.17827687113581531161E-06
    0.28948670749772296482E-06
    0.14270636110495936645E-06
    0.27290257712672385091E-06
    0.14488998299338677200E-05
    0.14472343870154839758E-05
   -0.17792869146179621730E-06
    0.13861695226204953526E-06
   -0.17883912885963766303E-06
   -0.17848075879148891147E-06
    0.13828380538236084014E-06
   -0.17972886646421365175E-06
   -0.17937973557542847148E-06
    0.14121811037650568481E-06
   -0.17707000026146113426E-06
   -0.17805141720271744514E-06
    0.14793413491342335269E-06
   -0.17865809310085158474E-06
    0.14484298145613242019E-05
    0.14434898687403206807E-05
   -0.17684179326587988982E-06
    0.13594697638142551251E-06
   -0.17887731369575825422E-06
   -0.17828210021955708093E-06
    0.13578019721752932588E-06
   -0.18004377149868017610E-06
   -0.17945524927660381471E-06
    0.14382923134383425907E-06
   -0.17540312217625015731E-06
   -0.17697459214488036382E-06
    0.15497007412615398467E-06
   -0.17822945677365738193E-06
    0.14463580538260640317E-05
    0.14383049094751026610E-05
   -0.17456280534628552508E-06
    0.13122582810077767524E-06
   -0.17906502508420376405E-06
   -0.17788497983712261972E-06
    0.13092989127775763798E-06
   -0.18067834104997932909E-06
   -0.17964698309835146886E-06
    0.14642307465566151372E-06
   -0.17225733199118425826E-06
   -0.17524456251285502835E-06
    0.16814485699944766695E-06
   -0.17710635857953184222E-06