# vtk DataFile Version 3.0
LAPLACIEN  2D
ASCII
DATASET UNSTRUCTURED_GRID
 POINTS        1857  float
   3.1250000000000000E-002  0.93750000000000000        0.0000000000000000     
   6.2500000000000000E-002  0.93750000000000000        0.0000000000000000     
   6.2500000000000000E-002  0.96875000000000000        0.0000000000000000     
   1.8749999999999999E-002  0.95625000000000004        0.0000000000000000     
   4.0625000000000001E-002  0.95937499999999998        0.0000000000000000     
   4.3749999999999997E-002  0.98124999999999996        0.0000000000000000     
   2.1874999999999999E-002  0.97812500000000002        0.0000000000000000     
   9.3750000000000000E-002  0.93750000000000000        0.0000000000000000     
  0.12500000000000000       0.93750000000000000        0.0000000000000000     
  0.12500000000000000       0.96875000000000000        0.0000000000000000     
   8.1250000000000003E-002  0.95625000000000004        0.0000000000000000     
  0.10312499999999999       0.95937499999999998        0.0000000000000000     
  0.10625000000000000       0.98124999999999996        0.0000000000000000     
   8.4375000000000006E-002  0.97812500000000002        0.0000000000000000     
   3.1250000000000000E-002  0.87500000000000000        0.0000000000000000     
   6.2500000000000000E-002  0.87500000000000000        0.0000000000000000     
   6.2500000000000000E-002  0.90625000000000000        0.0000000000000000     
   1.8749999999999999E-002  0.89375000000000004        0.0000000000000000     
   4.0625000000000001E-002  0.89687499999999998        0.0000000000000000     
   4.3749999999999997E-002  0.91874999999999996        0.0000000000000000     
   2.1874999999999999E-002  0.91562500000000002        0.0000000000000000     
   9.3750000000000000E-002  0.87500000000000000        0.0000000000000000     
  0.12500000000000000       0.87500000000000000        0.0000000000000000     
  0.12500000000000000       0.90625000000000000        0.0000000000000000     
   8.1250000000000003E-002  0.89375000000000004        0.0000000000000000     
  0.10312499999999999       0.89687499999999998        0.0000000000000000     
  0.10625000000000000       0.91874999999999996        0.0000000000000000     
   8.4375000000000006E-002  0.91562500000000002        0.0000000000000000     
  0.15625000000000000       0.93750000000000000        0.0000000000000000     
  0.18750000000000000       0.93750000000000000        0.0000000000000000     
  0.18750000000000000       0.96875000000000000        0.0000000000000000     
  0.14374999999999999       0.95625000000000004        0.0000000000000000     
  0.16562499999999999       0.95937499999999998        0.0000000000000000     
  0.16875000000000001       0.98124999999999996        0.0000000000000000     
  0.14687500000000001       0.97812500000000002        0.0000000000000000     
  0.21875000000000000       0.93750000000000000        0.0000000000000000     
  0.25000000000000000       0.93750000000000000        0.0000000000000000     
  0.25000000000000000       0.96875000000000000        0.0000000000000000     
  0.20624999999999999       0.95625000000000004        0.0000000000000000     
  0.22812499999999999       0.95937499999999998        0.0000000000000000     
  0.23125000000000001       0.98124999999999996        0.0000000000000000     
  0.20937500000000001       0.97812500000000002        0.0000000000000000     
  0.15625000000000000       0.87500000000000000        0.0000000000000000     
  0.18750000000000000       0.87500000000000000        0.0000000000000000     
  0.18750000000000000       0.90625000000000000        0.0000000000000000     
  0.14374999999999999       0.89375000000000004        0.0000000000000000     
  0.16562499999999999       0.89687499999999998        0.0000000000000000     
  0.16875000000000001       0.91874999999999996        0.0000000000000000     
  0.14687500000000001       0.91562500000000002        0.0000000000000000     
  0.21875000000000000       0.87500000000000000        0.0000000000000000     
  0.25000000000000000       0.87500000000000000        0.0000000000000000     
  0.25000000000000000       0.90625000000000000        0.0000000000000000     
  0.20624999999999999       0.89375000000000004        0.0000000000000000     
  0.22812499999999999       0.89687499999999998        0.0000000000000000     
  0.23125000000000001       0.91874999999999996        0.0000000000000000     
  0.20937500000000001       0.91562500000000002        0.0000000000000000     
   3.1250000000000000E-002  0.81250000000000000        0.0000000000000000     
   6.2500000000000000E-002  0.81250000000000000        0.0000000000000000     
   6.2500000000000000E-002  0.84375000000000000        0.0000000000000000     
   1.8749999999999999E-002  0.83125000000000004        0.0000000000000000     
   4.0625000000000001E-002  0.83437499999999998        0.0000000000000000     
   4.3749999999999997E-002  0.85624999999999996        0.0000000000000000     
   2.1874999999999999E-002  0.85312500000000002        0.0000000000000000     
   9.3750000000000000E-002  0.81250000000000000        0.0000000000000000     
  0.12500000000000000       0.81250000000000000        0.0000000000000000     
  0.12500000000000000       0.84375000000000000        0.0000000000000000     
   8.1250000000000003E-002  0.83125000000000004        0.0000000000000000     
  0.10312499999999999       0.83437499999999998        0.0000000000000000     
  0.10625000000000000       0.85624999999999996        0.0000000000000000     
   8.4375000000000006E-002  0.85312500000000002        0.0000000000000000     
   3.1250000000000000E-002  0.75000000000000000        0.0000000000000000     
   6.2500000000000000E-002  0.75000000000000000        0.0000000000000000     
   6.2500000000000000E-002  0.78125000000000000        0.0000000000000000     
   1.8749999999999999E-002  0.76875000000000004        0.0000000000000000     
   4.0625000000000001E-002  0.77187499999999998        0.0000000000000000     
   4.3749999999999997E-002  0.79374999999999996        0.0000000000000000     
   2.1874999999999999E-002  0.79062500000000002        0.0000000000000000     
   9.3750000000000000E-002  0.75000000000000000        0.0000000000000000     
  0.12500000000000000       0.75000000000000000        0.0000000000000000     
  0.12500000000000000       0.78125000000000000        0.0000000000000000     
   8.1250000000000003E-002  0.76875000000000004        0.0000000000000000     
  0.10312499999999999       0.77187499999999998        0.0000000000000000     
  0.10625000000000000       0.79374999999999996        0.0000000000000000     
   8.4375000000000006E-002  0.79062500000000002        0.0000000000000000     
  0.15625000000000000       0.81250000000000000        0.0000000000000000     
  0.18750000000000000       0.81250000000000000        0.0000000000000000     
  0.18750000000000000       0.84375000000000000        0.0000000000000000     
  0.14374999999999999       0.83125000000000004        0.0000000000000000     
  0.16562499999999999       0.83437499999999998        0.0000000000000000     
  0.16875000000000001       0.85624999999999996        0.0000000000000000     
  0.14687500000000001       0.85312500000000002        0.0000000000000000     
  0.21875000000000000       0.81250000000000000        0.0000000000000000     
  0.25000000000000000       0.81250000000000000        0.0000000000000000     
  0.25000000000000000       0.84375000000000000        0.0000000000000000     
  0.20624999999999999       0.83125000000000004        0.0000000000000000     
  0.22812499999999999       0.83437499999999998        0.0000000000000000     
  0.23125000000000001       0.85624999999999996        0.0000000000000000     
  0.20937500000000001       0.85312500000000002        0.0000000000000000     
  0.15625000000000000       0.75000000000000000        0.0000000000000000     
  0.18750000000000000       0.75000000000000000        0.0000000000000000     
  0.18750000000000000       0.78125000000000000        0.0000000000000000     
  0.14374999999999999       0.76875000000000004        0.0000000000000000     
  0.16562499999999999       0.77187499999999998        0.0000000000000000     
  0.16875000000000001       0.79374999999999996        0.0000000000000000     
  0.14687500000000001       0.79062500000000002        0.0000000000000000     
  0.21875000000000000       0.75000000000000000        0.0000000000000000     
  0.25000000000000000       0.75000000000000000        0.0000000000000000     
  0.25000000000000000       0.78125000000000000        0.0000000000000000     
  0.20624999999999999       0.76875000000000004        0.0000000000000000     
  0.22812499999999999       0.77187499999999998        0.0000000000000000     
  0.23125000000000001       0.79374999999999996        0.0000000000000000     
  0.20937500000000001       0.79062500000000002        0.0000000000000000     
  0.28125000000000000       0.93750000000000000        0.0000000000000000     
  0.31250000000000000       0.93750000000000000        0.0000000000000000     
  0.31250000000000000       0.96875000000000000        0.0000000000000000     
  0.26874999999999999       0.95625000000000004        0.0000000000000000     
  0.29062500000000002       0.95937499999999998        0.0000000000000000     
  0.29375000000000001       0.98124999999999996        0.0000000000000000     
  0.27187499999999998       0.97812500000000002        0.0000000000000000     
  0.34375000000000000       0.93750000000000000        0.0000000000000000     
  0.37500000000000000       0.93750000000000000        0.0000000000000000     
  0.37500000000000000       0.96875000000000000        0.0000000000000000     
  0.33124999999999999       0.95625000000000004        0.0000000000000000     
  0.35312500000000002       0.95937499999999998        0.0000000000000000     
  0.35625000000000001       0.98124999999999996        0.0000000000000000     
[...]
 CELL_DATA        3584
 SCALARS Tumor_cells float
 LOOKUP_TABLE default
   -0.64699356153072781485E-06
    0.67127126503436421715E-06
   -0.55532083186472150564E-06
   -0.55532067808893162694E-06
    0.67127122625480207086E-06
   -0.64699352440415406502E-06
    0.12266388142879507729E-05
    0.68003874317906105744E-06
    0.13078686907411198784E-05
    0.13078687204055151574E-05
    0.68003875718583885411E-06
    0.12266387393494049646E-05
    0.72938116850206738314E-05
    0.72938119855248742461E-05
   -0.64553983640462063381E-06
    0.66827644589742814615E-06
   -0.55543888699351282801E-06
   -0.55546317413373755375E-06
    0.66833004413321546948E-06
   -0.64702821330869604270E-06
    0.12242068979391867390E-05
    0.68428141145170665001E-06
    0.13071102501663681398E-05
   -0.55070644039889284475E-06
    0.69280529202129079777E-06
   -0.64695896755157020243E-06
    0.72900944891997342912E-05
    0.72827022708973074630E-05
   -0.64702830306773561271E-06
    0.66833003636140823403E-06
   -0.55546319071104530485E-06
   -0.55543873687179269645E-06
    0.66827652701896326835E-06
   -0.64553971973382178780E-06
   -0.64695900041437268990E-06
    0.69280502785637379583E-06
   -0.55070654008351764201E-06
    0.13071102933872659122E-05
    0.68428147518883920672E-06
    0.12242068739061256855E-05
    0.72827015140948024130E-05
    0.72900942895886394261E-05
   -0.64585121337737677165E-06
    0.66442840544072835416E-06
   -0.55565041732013393832E-06
   -0.55565036869479697370E-06
    0.66442846562420617846E-06
   -0.64585106757335256098E-06
   -0.64720483034283348469E-06
    0.69970503618126060642E-06
   -0.55073822920393107156E-06
   -0.55073829460623437021E-06
    0.69970541931350713223E-06
   -0.64720477413463459482E-06
    0.72740387953968979948E-05
    0.72740390495858179684E-05
   -0.64444888142710058198E-06
    0.66492933083517805004E-06
   -0.55564889100570649049E-06
   -0.55567559644222798318E-06
    0.66556009980477990035E-06
   -0.64712988791276546892E-06
    0.12220885591569389201E-05
    0.68995847960282393233E-06
    0.13065739617688587956E-05
   -0.54732731918688207743E-06
    0.70550466734092255545E-06
   -0.64650480388983312957E-06
    0.72841340820114010922E-05
    0.72731218083964463541E-05
   -0.64428317058907801735E-06
    0.66195180470331628560E-06
   -0.55593759259135524533E-06
   -0.55593603520794023962E-06
    0.66341289579156547352E-06
   -0.64730193250952626353E-06
    0.12206735994964913963E-05
    0.69675397037970077320E-06
    0.13063165249848006368E-05
   -0.54451728508591937555E-06
    0.71596026756066230696E-06
   -0.64682877255400282037E-06
    0.72758959480365395143E-05
    0.72667705504563022967E-05
   -0.64461810098068834163E-06
    0.65826125346836788589E-06
   -0.55599625759821143753E-06
   -0.55597696254466603162E-06
    0.65870086947307988317E-06
   -0.64490903687524519890E-06
   -0.64738369538129439652E-06
    0.71466655545293364012E-06
   -0.54787246484613026127E-06
   -0.54798248453007329623E-06
    0.71931614522397939067E-06
   -0.64736719919281017244E-06
    0.72577549780216570920E-05
    0.72582806270382509023E-05
   -0.64500000400943783289E-06
    0.65171629122886412750E-06
   -0.55650361152550152668E-06
   -0.55639490907862460354E-06
    0.65124814276904730701E-06
   -0.64233921492777702554E-06
   -0.64761242210093362186E-06
    0.73890684696266775196E-06
   -0.54495569015851508248E-06
   -0.54409924808231098933E-06
    0.73568611105074502236E-06
   -0.64764959986137933657E-06
    0.72327090919871722815E-05
    0.72453022485860964100E-05
   -0.64712996669666986295E-06
    0.66556001586870379574E-06
   -0.55567570505439517956E-06
   -0.55564869505424923771E-06
    0.66492935657514495877E-06
   -0.64444878568902452625E-06
   -0.64650477089852579137E-06
    0.70550446368534309361E-06
   -0.54732741862424334606E-06
    0.13065739185986010997E-05
    0.68995852420666488031E-06
    0.12220885567983650905E-05
    0.72731214163817565338E-05
    0.72841342923496659438E-05
   -0.64490918079743727472E-06
    0.65870079489728472252E-06
   -0.55597702201779566245E-06
   -0.55599614937664321451E-06
    0.65826130446886898500E-06
   -0.64461799588516265545E-06
   -0.64736725872940724086E-06
    0.71931580648253867387E-06
   -0.54798245522945537470E-06
   -0.54787249129555354366E-06
    0.71466681990634868746E-06
   -0.64738366584405104491E-06
    0.72582808246793715959E-05
    0.72577557657607581326E-05
   -0.64730197699834013727E-06
    0.66341293121283807208E-06
   -0.55593611660873534827E-06
   -0.55593744590274001124E-06
    0.66195179262470904346E-06
   -0.64428305604095199574E-06
   -0.64682882252520239923E-06
    0.71596006851210065683E-06
   -0.54451733389307132703E-06
    0.13063165384575368657E-05
    0.69675397094868107359E-06
    0.12206735847499849038E-05
    0.72667701921675015148E-05
    0.72758961745663422902E-05
   -0.64233931874419042302E-06
    0.65124800402806810163E-06
   -0.55639496690622099840E-06
   -0.55650349662160864409E-06
    0.65171629865353322660E-06
   -0.64499988995905611141E-06
   -0.64764966123988385363E-06
    0.73568580245457617643E-06
   -0.54409921081472499439E-06
   -0.54495570737268033096E-06
    0.73890708435349024882E-06
   -0.64761241989327088797E-06
    0.72453024709731728492E-05
    0.72327098420787454047E-05
   -0.64246035352519987426E-06
    0.64734858355702874962E-06
   -0.55657447997197788586E-06
   -0.55657437532585400017E-06
    0.64734854147697053710E-06
   -0.64246028960691005179E-06
   -0.64763062297750446563E-06
    0.74907255898840236059E-06
   -0.54268897703321972473E-06
   -0.54268902221931959098E-06
    0.74907284154470900055E-06
   -0.64763060140030077557E-06
    0.72282467142693898702E-05
    0.72282470123637476686E-05
   -0.64226675300280946987E-06
    0.63339951191886681405E-06
   -0.55754764732646873320E-06
   -0.55739026925048194940E-06
    0.63152524262002164859E-06
   -0.63683145670352868470E-06
   -0.64794878053507018016E-06
    0.80075799052471096338E-06
   -0.53628071168361241259E-06
   -0.53450513406309391311E-06
    0.78265193297662533945E-06
   -0.64809755619163846637E-06
    0.71772589996971029373E-05
    0.71989792349008837821E-05
   -0.63683148350125985594E-06
    0.63152519755347275367E-06
   -0.55739036039859975461E-06
   -0.55754756640301565385E-06
    0.63339956568747327886E-06
   -0.64226665436768739926E-06
   -0.64809759443808654599E-06
    0.78265172719176778442E-06
   -0.53450508154551731255E-06
   -0.53628069886560522920E-06
    0.80075826669778451262E-06
   -0.64794877860600854696E-06
    0.71989789370462125908E-05
    0.71772592763973397232E-05
   -0.63270865958163090794E-06
    0.60250746132713980881E-06
   -0.55925665126689115570E-06
   -0.55925656596539539901E-06
    0.60250751054186940319E-06
   -0.63270851306487251786E-06
   -0.64860141289272207436E-06
    0.87493574645843344689E-06
   -0.52063819554600813067E-06
   -0.52063816850269648528E-06
    0.87493597868817154074E-06
   -0.64860136751085447102E-06
    0.71088337194183407261E-05
    0.71088340031835268591E-05
   -0.64539833165111504998E-06
    0.66008660272167877997E-06
   -0.55626930173782890326E-06
   -0.55619962650871325512E-06
    0.66243087150942283924E-06
   -0.64748221108853537602E-06
    0.12204319888974256789E-05
    0.70374150728775534421E-06
    0.13064502762299888716E-05
   -0.54291991637707096391E-06
    0.72090793494048295358E-06
   -0.64764046300053128133E-06
    0.72661979214559285778E-05
    0.72658634854423364503E-05
   -0.64755880657742036787E-06
    0.65963661676791472565E-06
   -0.55655675603749342404E-06
   -0.55641938989923178537E-06
    0.66089073661899204419E-06
   -0.64593016213849758264E-06
    0.12216493408511541053E-05
    0.70942787836478633153E-06
    0.13070352899490973932E-05
   -0.54318864881692330956E-06
    0.71664864221982654213E-06
   -0.64791341677653062298E-06
    0.72569871481979843217E-05
    0.72718190661530316516E-05
   -0.64730054654505659730E-06
    0.64572205716777751846E-06
   -0.55708008761284952051E-06
   -0.55683954085171521394E-06
    0.64324574864057689910E-06
   -0.63813305899555290795E-06
   -0.64785096020348162239E-06
    0.77093707128053647445E-06
   -0.54257562095601620191E-06
   -0.53941087624893042201E-06
    0.74326608216768641065E-06
   -0.64805907028932343488E-06
    0.72005857721366948004E-05
    0.72396518385883739698E-05
   -0.64728381363885085477E-06
    0.63660649760764781033E-06
   -0.55750107041619749970E-06
   -0.55721778291303530011E-06
    0.63676197631016505572E-06
   -0.63304278588438805356E-06
   -0.64478814564109365439E-06
    0.80070901662025290398E-06
   -0.54156959299183381244E-06
   -0.53492584015083103485E-06
    0.73661404547736446115E-06
   -0.64849438890498640012E-06
    0.71679590392048032348E-05
    0.72451505151750129527E-05
   -0.64769036860812948464E-06
    0.65737785407476608793E-06
   -0.55674206569692411842E-06
   -0.55655212977765892168E-06
    0.66059317506737256804E-06
   -0.64401398834814337425E-06
    0.12241882000970105122E-05
    0.71238121185367217944E-06
    0.13080082111613335646E-05
   -0.54555400007656025351E-06
    0.70381185245416439731E-06
   -0.64814415156520248248E-06
    0.72505679258318457434E-05
    0.72840183011135755279E-05
   -0.64780186690558860930E-06
    0.65638366069255806037E-06
   -0.55679792788943987067E-06
   -0.55657188042349376647E-06
    0.66159655893975960571E-06
   -0.64209966400568995494E-06
    0.12273500270072651942E-05
    0.71216999893278788291E-06
    0.13086505924856041861E-05
   -0.54905785818726816501E-06
    0.68487884334761598283E-06
   -0.64830133625510576074E-06
    0.72484009171831892643E-05
    0.73000476520090929486E-05
   -0.64733124860717215678E-06
    0.62960767309170927675E-06
   -0.55767231991571888685E-06
   -0.55744738072292195163E-06
    0.63346126674431500450E-06
   -0.62825514716894348783E-06
   -0.64038224946423093849E-06
    0.82265183464885228479E-06
   -0.54242356100160270161E-06
   -0.53192387810015576960E-06
    0.71568054235652074108E-06
   -0.64889446423947334272E-06
    0.71435353139408850110E-05
    0.72613063315813174755E-05
   -0.64749545424511118604E-06
    0.62619955944377000817E-06
   -0.55761336238831658477E-06
   -0.55748115278777884646E-06
    0.63382417070178318778E-06
   -0.62470392973965605017E-06
   -0.63596670812487284552E-06
    0.83258649345376487046E-06
   -0.54497767325915309486E-06
   -0.53111173543342727828E-06
    0.68589511063141151609E-06
   -0.64917260269414519218E-06
    0.71325168058215666664E-05
    0.72841119514647399840E-05
   -0.64679107805033655046E-06
    0.62028687619827596155E-06
   -0.55879406426574844908E-06
   -0.55833280937279796335E-06
    0.61294371876170938160E-06
   -0.62729892190923641555E-06
   -0.64540570385880494201E-06
    0.87080649239994103910E-06
   -0.52984809886333026384E-06
   -0.52348048619166035761E-06
    0.80248911923065010405E-06
   -0.64891752303537450908E-06
    0.71048134101824257831E-05
    0.71812241723733458368E-05
   -0.64597054494625769017E-06
    0.59938461119175513869E-06
   -0.55928300542965297356E-06
   -0.55916034008728589959E-06
    0.59749204709496515121E-06
   -0.61591362685731347742E-06
   -0.63696111238020245573E-06
    0.94096265815955478571E-06
   -0.52582311276987776713E-06
   -0.51227934426494722867E-06
    0.79117726637553327804E-06
   -0.64981241845662027136E-06
    0.70272366773977279085E-05
    0.71875997086451263516E-05
   -0.63522589269718157440E-06
    0.56820650480591881617E-06
   -0.56198173408022598166E-06
   -0.56137738013966232625E-06
    0.55998733594940624381E-06
   -0.61275447035744832048E-06
   -0.64605244577699604779E-06
    0.10259454794720875762E-05
   -0.50314230455858449044E-06
   -0.49554243952064749753E-06
    0.93580093403995009906E-06
   -0.64997740077048011379E-06
    0.69528347880129021518E-05
    0.70525206498035399982E-05
   -0.63782970246500109563E-06
    0.53265693926465181154E-06
   -0.56072781159843107290E-06
   -0.56288390294911152301E-06
    0.52528488483528151428E-06
   -0.58810901698195822241E-06
   -0.62474084811861698531E-06
    0.11852510798256934332E-05
   -0.48995602036773172065E-06
   -0.46784191351272634438E-06
    0.91501700227606378804E-06
   -0.65198803799992491209E-06
    0.67688622182322780957E-05
    0.70591861312749357618E-05
   -0.64552782728050379100E-06
    0.58365233989481908155E-06
   -0.55892077274695454802E-06
   -0.55965732670345790933E-06
    0.58958025104831981496E-06
   -0.60594201221682892448E-06
   -0.62668010348270978336E-06
    0.99333757640010196292E-06
   -0.52599554129403779617E-06
   -0.50493945032272430139E-06
    0.74886204278025307414E-06
   -0.65068083292206365614E-06
    0.69703631327762962603E-05
    0.72165758861563339635E-05
   -0.64584324310222774761E-06
    0.57618246361306042708E-06
   -0.55817647134840656429E-06
   -0.55971663656932156033E-06
    0.58955506198857921721E-06
   -0.59918610337764752776E-06
   -0.61743018791203661865E-06
    0.10177057468802733782E-05
   -0.53008658813299006381E-06
   -0.50304965085160300333E-06
    0.69229200760451697385E-06
   -0.65131074297771733798E-06
    0.69451773201898589507E-05
    0.72574764280147527866E-05
   -0.63461992046185072505E-06
    0.50162804029418296970E-06
   -0.55584617628720604519E-06
   -0.56329937353482975528E-06
    0.51038777100575825615E-06
   -0.56867475726369614682E-06
   -0.59910642505634973820E-06
    0.12972351038578235235E-05
   -0.48851354231008336555E-06
   -0.45299081253721801002E-06
    0.81533294229110882656E-06
   -0.65344724313035818142E-06
    0.66491419804021939315E-05
    0.71176766689430798294E-05
   -0.63516783767912791358E-06
    0.48886750092307378818E-06
   -0.55162923977710499341E-06
   -0.56289082476533503577E-06
    0.51049443203588195393E-06
   -0.55633865573084131738E-06
   -0.57793595833280263402E-06
    0.13475522872591355995E-05
   -0.49664300347930721848E-06
   -0.45184600151417844522E-06
    0.70300430036973021506E-06
   -0.65439081056719025385E-06
    0.66017456444770021765E-05
    0.71930501630805726936E-05
   -0.64748223236576097138E-06
    0.66243091957164563015E-06
   -0.55619980125172250555E-06
   -0.55626909488072186942E-06
    0.66008658266226781650E-06
   -0.64539820171252912576E-06
   -0.64764049241017727213E-06
    0.72090773661997481485E-06
   -0.54292011247701605696E-06
    0.13064502805541513596E-05
    0.70374153872029505464E-06
    0.12204319964664688969E-05
    0.72658630941551090182E-05
    0.72661981725982904216E-05
   -0.63813317831170986949E-06
    0.64324565488196548973E-06
   -0.55683967697009300858E-06
   -0.55708000786698600778E-06
    0.64572206593730613303E-06
   -0.64730047242834800011E-06
   -0.64805913018674478624E-06
    0.74326575720891752504E-06
   -0.53941093310078880147E-06
   -0.54257569304812335517E-06
    0.77093732872911663234E-06
   -0.64785094022868162705E-06
    0.72396520375372635589E-05
    0.72005865558105882655E-05
   -0.64593021231544961708E-06
    0.66089073329439810237E-06
   -0.55641952749243539568E-06
   -0.55655660088023028957E-06
    0.65963660533780638997E-06
   -0.64755867883334508522E-06
   -0.64791345648634066848E-06
    0.71664844910908951906E-06
   -0.54318881375332179227E-06
    0.13070353242716423689E-05
    0.70942790970087937658E-06
    0.12216493147536090615E-05
    0.72718187151462806904E-05
    0.72569874116661756434E-05
   -0.63304286074569536259E-06
    0.63676190663037840773E-06
   -0.55721793598304037535E-06
   -0.55750092517266219001E-06
    0.63660647099920129187E-06
   -0.64728376528270456067E-06
   -0.64849442353276668638E-06
    0.73661372231430891772E-06
   -0.53492583812752618660E-06
   -0.54156968698814278384E-06
    0.80070928577505592715E-06
   -0.64478811527951021521E-06
    0.72451506751967331520E-05
    0.71679597905517384782E-05
   -0.62729894638777782468E-06
    0.61294372213030795558E-06
   -0.55833297149313938056E-06
   -0.55879402630531120850E-06
    0.62028685493126092485E-06
   -0.64679100395573064275E-06
   -0.64891759303107575316E-06
    0.80248890725352324800E-06
   -0.52348054959402167076E-06
   -0.52984813106410037594E-06
    0.87080676328794086724E-06
   -0.64540567819020182963E-06
    0.71812238861080225283E-05
    0.71048136962325391956E-05
   -0.61275451588370306582E-06
    0.55998737034397697211E-06
   -0.56137757401948027796E-06
   -0.56198166302894454954E-06
    0.56820652184150950822E-06
   -0.63522578883731093980E-06
   -0.64997744219511238442E-06
    0.93580069177288576804E-06
   -0.49554253752048289336E-06
   -0.50314234779378250835E-06
    0.10259457243482563773E-05
   -0.64605243375081675696E-06
    0.70525203366585586918E-05
    0.69528351232484087018E-05
   -0.61591371094041480816E-06
    0.59749204086241096322E-06
   -0.55916049273869788020E-06
   -0.55928293331264358105E-06
    0.59938463922528948640E-06
   -0.64597043772881568590E-06
   -0.64981240754044060022E-06
    0.79117708844323047011E-06
   -0.51227942622432911993E-06
   -0.52582314759553013794E-06
    0.94096293044944263419E-06
   -0.63696107652655543062E-06
    0.71875993632195728887E-05
    0.70272369603048112207E-05
   -0.58810904616014631938E-06
    0.52528489808573946306E-06
   -0.56288407165325940945E-06
   -0.56072773451904443055E-06
    0.53265694156906402510E-06
   -0.63782965014699964525E-06
   -0.65198807059367447777E-06
    0.91501679711047255014E-06
   -0.46784200765878481163E-06
   -0.48995600983107447888E-06
    0.11852512845725284168E-05
   -0.62474079067430204617E-06
    0.70591857649331945447E-05
    0.67688625645988682224E-05
   -0.64401403348699203694E-06
    0.66059316564468266004E-06
   -0.55655223046309867414E-06
   -0.55674191724490021408E-06
    0.65737781356890039667E-06
   -0.64769027015962708940E-06
   -0.64814421073137912581E-06
    0.70381166232522867049E-06
   -0.54555416353838448934E-06
    0.13080082326686094967E-05
    0.71238128387422453041E-06
    0.12241882120958829431E-05
    0.72840179720266345551E-05
    0.72505681701704374612E-05
   -0.62825524987586156787E-06
    0.63346115334359813033E-06
   -0.55744754676686736425E-06
   -0.55767227895237948875E-06
    0.62960769230618634648E-06
   -0.64733116304186534170E-06
   -0.64889446413048360169E-06
    0.71568021238766738070E-06
   -0.53192388408381927867E-06
   -0.54242362589771424054E-06
    0.82265212651574603388E-06
   -0.64038221067049824863E-06
    0.72613065150912231856E-05
    0.71435360799320568359E-05
   -0.64209972946097357625E-06
    0.66159655485497709889E-06
   -0.55657204493254729251E-06
   -0.55679781198630889059E-06
    0.65638369772204764665E-06
   -0.64780179994239872408E-06
   -0.64830130145777054839E-06
    0.68487862482423014580E-06
   -0.54905802240690270908E-06
    0.13086505968414776818E-05
    0.71217009505588477652E-06
    0.12273500133840162927E-05
    0.73000473120175226577E-05
    0.72484011440039368461E-05
   -0.62470401759237364524E-06
    0.63382404671571420650E-06
   -0.55748128491534682819E-06
   -0.55761333837879902375E-06
    0.62619956254202679385E-06
   -0.64749534947499226479E-06
   -0.64917262672635000129E-06
    0.68589478587364291359E-06
   -0.53111177870176291915E-06
   -0.54497769875017204408E-06
    0.83258679681260703077E-06
   -0.63596666951052045219E-06
    0.72841121104963294899E-05
    0.71325175059904383527E-05
   -0.60594207173657956637E-06
    0.58958019397780464473E-06
   -0.55965747309119338214E-06
   -0.55892072878634840848E-06
    0.58365235781743442854E-06
   -0.64552768724799521743E-06
   -0.65068084511004656868E-06
    0.74886187909184720728E-06
   -0.50493947036626080864E-06
   -0.52599558829122624080E-06
    0.99333782807546775914E-06
   -0.62668004115907700992E-06
    0.72165755154039634410E-05
    0.69703634169867879425E-05
   -0.56867485399995902628E-06
    0.51038775967541843731E-06
   -0.56329955138385514258E-06
   -0.55584609981275053437E-06
    0.50162805999444296381E-06
   -0.63461981637703471532E-06
   -0.65344724520930695332E-06
    0.81533281177210426903E-06
   -0.45299091335271072474E-06
   -0.48851350207746997369E-06
    0.12972354359512376388E-05
   -0.59910634941510867914E-06