# vtk DataFile Version 3.0
LAPLACIEN  2D
ASCII
DATASET UNSTRUCTURED_GRID
 POINTS        1857  float
   3.1250000000000000E-002  0.93750000000000000        0.0000000000000000     
   6.2500000000000000E-002  0.93750000000000000        0.0000000000000000     
   6.2500000000000000E-002  0.96875000000000000        0.0000000000000000     
   1.8749999999999999E-002  0.95625000000000004        0.0000000000000000     
   4.0625000000000001E-002  0.95937499999999998        0.0000000000000000     
   4.3749999999999997E-002  0.98124999999999996        0.0000000000000000     
   2.1874999999999999E-002  0.97812500000000002        0.0000000000000000     
   9.3750000000000000E-002  0.93750000000000000        0.0000000000000000     
  0.12500000000000000       0.93750000000000000        0.0000000000000000     
  0.12500000000000000       0.96875000000000000        0.0000000000000000     
   8.1250000000000003E-002  0.95625000000000004        0.0000000000000000     
  0.10312499999999999       0.95937499999999998        0.0000000000000000     
  0.10625000000000000       0.98124999999999996        0.0000000000000000     
   8.4375000000000006E-002  0.97812500000000002        0.0000000000000000     
   3.1250000000000000E-002  0.87500000000000000        0.0000000000000000     
   6.2500000000000000E-002  0.87500000000000000        0.0000000000000000     
   6.2500000000000000E-002  0.90625000000000000        0.0000000000000000     
   1.8749999999999999E-002  0.89375000000000004        0.0000000000000000     
   4.0625000000000001E-002  0.89687499999999998        0.0000000000000000     
   4.3749999999999997E-002  0.91874999999999996        0.0000000000000000     
   2.1874999999999999E-002  0.91562500000000002        0.0000000000000000     
   9.3750000000000000E-002  0.87500000000000000        0.0000000000000000     
  0.12500000000000000       0.87500000000000000        0.0000000000000000     
  0.12500000000000000       0.90625000000000000        0.0000000000000000     
   8.1250000000000003E-002  0.89375000000000004        0.0000000000000000     
  0.10312499999999999       0.89687499999999998        0.0000000000000000     
  0.10625000000000000       0.91874999999999996        0.0000000000000000     
   8.4375000000000006E-002  0.91562500000000002        0.0000000000000000     
  0.15625000000000000       0.93750000000000000        0.0000000000000000     
  0.18750000000000000       0.93750000000000000        0.0000000000000000     
  0.18750000000000000       0.96875000000000000        0.0000000000000000     
  0.14374999999999999       0.95625000000000004        0.0000000000000000     
  0.16562499999999999       0.95937499999999998        0.0000000000000000     
  0.16875000000000001       0.98124999999999996        0.0000000000000000     
  0.14687500000000001       0.97812500000000002        0.0000000000000000     
  0.21875000000000000       0.93750000000000000        0.0000000000000000     
  0.25000000000000000       0.93750000000000000        0.0000000000000000     
  0.25000000000000000       0.96875000000000000        0.0000000000000000     
  0.20624999999999999       0.95625000000000004        0.0000000000000000     
  0.22812499999999999       0.95937499999999998        0.0000000000000000     
  0.23125000000000001       0.98124999999999996        0.0000000000000000     
  0.20937500000000001       0.97812500000000002        0.0000000000000000     
  0.15625000000000000       0.87500000000000000        0.0000000000000000     
  0.18750000000000000       0.87500000000000000        0.0000000000000000     
  0.18750000000000000       0.90625000000000000        0.0000000000000000     
  0.14374999999999999       0.89375000000000004        0.0000000000000000     
  0.16562499999999999       0.89687499999999998        0.0000000000000000     
  0.16875000000000001       0.91874999999999996        0.0000000000000000     
  0.14687500000000001       0.91562500000000002        0.0000000000000000     
  0.21875000000000000       0.87500000000000000        0.0000000000000000     
  0.25000000000000000       0.87500000000000000        0.0000000000000000     
  0.25000000000000000       0.90625000000000000        0.0000000000000000     
  0.20624999999999999       0.89375000000000004        0.0000000000000000     
  0.22812499999999999       0.89687499999999998        0.0000000000000000     
  0.23125000000000001       0.91874999999999996        0.0000000000000000     
  0.20937500000000001       0.91562500000000002        0.0000000000000000     
   3.1250000000000000E-002  0.81250000000000000        0.0000000000000000     
   6.2500000000000000E-002  0.81250000000000000        0.0000000000000000     
   6.2500000000000000E-002  0.84375000000000000        0.0000000000000000     
   1.8749999999999999E-002  0.83125000000000004        0.0000000000000000     
   4.0625000000000001E-002  0.83437499999999998        0.0000000000000000     
   4.3749999999999997E-002  0.85624999999999996        0.0000000000000000     
   2.1874999999999999E-002  0.85312500000000002        0.0000000000000000     
   9.3750000000000000E-002  0.81250000000000000        0.0000000000000000     
  0.12500000000000000       0.81250000000000000        0.0000000000000000     
  0.12500000000000000       0.84375000000000000        0.0000000000000000     
   8.1250000000000003E-002  0.83125000000000004        0.0000000000000000     
  0.10312499999999999       0.83437499999999998        0.0000000000000000     
  0.10625000000000000       0.85624999999999996        0.0000000000000000     
   8.4375000000000006E-002  0.85312500000000002        0.0000000000000000     
   3.1250000000000000E-002  0.75000000000000000        0.0000000000000000     
   6.2500000000000000E-002  0.75000000000000000        0.0000000000000000     
   6.2500000000000000E-002  0.78125000000000000        0.0000000000000000     
   1.8749999999999999E-002  0.76875000000000004        0.0000000000000000     
   4.0625000000000001E-002  0.77187499999999998        0.0000000000000000     
   4.3749999999999997E-002  0.79374999999999996        0.0000000000000000     
   2.1874999999999999E-002  0.79062500000000002        0.0000000000000000     
   9.3750000000000000E-002  0.75000000000000000        0.0000000000000000     
  0.12500000000000000       0.75000000000000000        0.0000000000000000     
  0.12500000000000000       0.78125000000000000        0.0000000000000000     
   8.1250000000000003E-002  0.76875000000000004        0.0000000000000000     
  0.10312499999999999       0.77187499999999998        0.0000000000000000     
  0.10625000000000000       0.79374999999999996        0.0000000000000000     
   8.4375000000000006E-002  0.79062500000000002        0.0000000000000000     
  0.15625000000000000       0.81250000000000000        0.0000000000000000     
  0.18750000000000000       0.81250000000000000        0.0000000000000000     
  0.18750000000000000       0.84375000000000000        0.0000000000000000     
  0.14374999999999999       0.83125000000000004        0.0000000000000000     
  0.16562499999999999       0.83437499999999998        0.0000000000000000     
  0.16875000000000001       0.85624999999999996        0.0000000000000000     
  0.14687500000000001       0.85312500000000002        0.0000000000000000     
  0.21875000000000000       0.81250000000000000        0.0000000000000000     
  0.25000000000000000       0.81250000000000000        0.0000000000000000     
  0.25000000000000000       0.84375000000000000        0.0000000000000000     
  0.20624999999999999       0.83125000000000004        0.0000000000000000     
  0.22812499999999999       0.83437499999999998        0.0000000000000000     
  0.23125000000000001       0.85624999999999996        0.0000000000000000     
  0.20937500000000001       0.85312500000000002        0.0000000000000000     
  0.15625000000000000       0.75000000000000000        0.0000000000000000     
  0.18750000000000000       0.75000000000000000        0.0000000000000000     
  0.18750000000000000       0.78125000000000000        0.0000000000000000     
  0.14374999999999999       0.76875000000000004        0.0000000000000000     
  0.16562499999999999       0.77187499999999998        0.0000000000000000     
  0.16875000000000001       0.79374999999999996        0.0000000000000000     
  0.14687500000000001       0.79062500000000002        0.0000000000000000     
  0.21875000000000000       0.75000000000000000        0.0000000000000000     
  0.25000000000000000       0.75000000000000000        0.0000000000000000     
  0.25000000000000000       0.78125000000000000        0.0000000000000000     
  0.20624999999999999       0.76875000000000004        0.0000000000000000     
  0.22812499999999999       0.77187499999999998        0.0000000000000000     
  0.23125000000000001       0.79374999999999996        0.0000000000000000     
  0.20937500000000001       0.79062500000000002        0.0000000000000000     
  0.28125000000000000       0.93750000000000000        0.0000000000000000     
  0.31250000000000000       0.93750000000000000        0.0000000000000000     
  0.31250000000000000       0.96875000000000000        0.0000000000000000     
  0.26874999999999999       0.95625000000000004        0.0000000000000000     
  0.29062500000000002       0.95937499999999998        0.0000000000000000     
  0.29375000000000001       0.98124999999999996        0.0000000000000000     
  0.27187499999999998       0.97812500000000002        0.0000000000000000     
  0.34375000000000000       0.93750000000000000        0.0000000000000000     
  0.37500000000000000       0.93750000000000000        0.0000000000000000     
  0.37500000000000000       0.96875000000000000        0.0000000000000000     
  0.33124999999999999       0.95625000000000004        0.0000000000000000     
  0.35312500000000002       0.95937499999999998        0.0000000000000000     
  0.35625000000000001       0.98124999999999996        0.0000000000000000     
[...]
 CELL_DATA        3584
 SCALARS Tumor_cells float
 LOOKUP_TABLE default
   -0.52796505760336766566E-06
    0.54220433182378963403E-06
   -0.47072370655754103364E-06
   -0.47072361788084551053E-06
    0.54220428979806879684E-06
   -0.52796503524313580246E-06
    0.98551144779412075422E-06
    0.54781722371428348483E-06
    0.10510474269697248871E-05
    0.10510474364749369800E-05
    0.54781720886789931403E-06
    0.98551140554019515911E-06
    0.56908429397752153696E-05
    0.56908431282107565814E-05
   -0.52701695098631413906E-06
    0.54022094804594116171E-06
   -0.47079110237527204081E-06
   -0.47079139247121932052E-06
    0.54026799576793742019E-06
   -0.52801798878391373931E-06
    0.98393357652683654521E-06
    0.55050430974073436216E-06
    0.10505634192917028143E-05
   -0.46769926560835575832E-06
    0.55586022319089683845E-06
   -0.52790992749972050100E-06
    0.56885414122308373584E-05
    0.56839583751648999622E-05
   -0.52801805756309482960E-06
    0.54026799346993724604E-06
   -0.47079138775085553027E-06
   -0.47079100897630240346E-06
    0.54022101248210597522E-06
   -0.52701685404502936995E-06
   -0.52790996229339028415E-06
    0.55586006406405699535E-06
   -0.46769930289179429251E-06
    0.10505634436960698658E-05
    0.55050433532761234766E-06
    0.98393354562705451234E-06
    0.56839578278906514736E-05
    0.56885412071908931879E-05
   -0.52726003607176475662E-06
    0.53767470928468788470E-06
   -0.47088999708206477946E-06
   -0.47088997292006980005E-06
    0.53767474400174036140E-06
   -0.52725992962710902661E-06
   -0.52807140464711114949E-06
    0.56017501698530679128E-06
   -0.46770591610867099760E-06
   -0.46770596423214639376E-06
    0.56017527116431256184E-06
   -0.52807136880496577301E-06
    0.56785892211168091344E-05
    0.56785893803046541962E-05
   -0.52632223924609159205E-06
    0.53800530771199816830E-06
   -0.47090926031553659619E-06
   -0.47091083235507840845E-06
    0.53843815156262047148E-06
   -0.52811094178040698434E-06
    0.98255789819785787363E-06
    0.55409770025706670409E-06
    0.10502164230010421530E-05
   -0.46546343461783049347E-06
    0.56386864356791471335E-06
   -0.52761463917031089379E-06
    0.56848495733200517363E-05
    0.56780190493396717088E-05
   -0.52624913261406274749E-06
    0.53603305916247478476E-06
   -0.47106847052549935054E-06
   -0.47107240493933363212E-06
    0.53701180628421179637E-06
   -0.52823952762874027681E-06
    0.98163764120557925045E-06
    0.55839489393486880867E-06
    0.10500476766403851212E-05
   -0.46360533018712096719E-06
    0.57047045982138952405E-06
   -0.52782822178234116419E-06
    0.56797445407840833784E-05
    0.56740797952418568060E-05
   -0.52649898898794618673E-06
    0.53359131780520774592E-06
   -0.47106766187735120227E-06
   -0.47106860204376021677E-06
    0.53388243618600103275E-06
   -0.52667799209995451704E-06
   -0.52819036398065150803E-06
    0.56959880463886064525E-06
   -0.46580868829366734730E-06
   -0.46588414586532784103E-06
    0.57255363184102046032E-06
   -0.52817993807933294256E-06
    0.56684953604850620191E-05
    0.56688201517187377173E-05
   -0.52683920648835155477E-06
    0.52925835349911625221E-06
   -0.47131963769015706667E-06
   -0.47132016586325752336E-06
    0.52894667065890706099E-06
   -0.52501496297703875460E-06
   -0.52834412659910319072E-06
    0.58491186813883056725E-06
   -0.46389166147319606461E-06
   -0.46332142490167639226E-06
    0.58286482112704227390E-06
   -0.52836662503095021194E-06
    0.56529713311082103642E-05
    0.56607785129515509424E-05
   -0.52811100103288950873E-06
    0.53843808597334926105E-06
   -0.47091088138413409269E-06
   -0.47090913796562329617E-06
    0.53800532814748254886E-06
   -0.52632217788546889342E-06
   -0.52761460836008692499E-06
    0.56386850998600429020E-06
   -0.46546348214892471588E-06
    0.10502163773924033950E-05
    0.55409770765838246957E-06
    0.98255790845817421625E-06
    0.56780188181219608511E-05
    0.56848497064284054145E-05
   -0.52667809379347306162E-06
    0.53388237663299471269E-06
   -0.47106862689496213549E-06
   -0.47106758331131596424E-06
    0.53359134177293450127E-06
   -0.52649890230056910894E-06
   -0.52817998528016515425E-06
    0.57255340062841255266E-06
   -0.46588411115811666956E-06
   -0.46580870662534783292E-06
    0.56959897355824627397E-06
   -0.52819034287830973479E-06
    0.56688203547323393676E-05
    0.56684959345220161254E-05
   -0.52823954176536621260E-06
    0.53701185030299226461E-06
   -0.47107245766378860680E-06
   -0.47106840066370909204E-06
    0.53603304734646395578E-06
   -0.52624903909720809380E-06
   -0.52782827039891017315E-06
    0.57047033546691552670E-06
   -0.46360533165698481092E-06
    0.10500476818087389727E-05
    0.55839487043128233299E-06
    0.98163762512532515000E-06
    0.56740795850691682609E-05
    0.56797446648832328463E-05
   -0.52501505056146861627E-06
    0.52894656517354706045E-06
   -0.47132017617448494009E-06
   -0.47131956407561814619E-06
    0.52925836149663923926E-06
   -0.52683911737099227598E-06
   -0.52836667414824391233E-06
    0.58286462495218569288E-06
   -0.46332139688704490826E-06
   -0.46389168230401142103E-06
    0.58491201344617138655E-06
   -0.52834412308035013327E-06
    0.56607787394944996697E-05
    0.56529718696182326644E-05
   -0.52515390010011677961E-06
    0.52636594962892057712E-06
   -0.47137111511628384581E-06
   -0.47137106499440255841E-06
    0.52636589985394316852E-06
   -0.52515385353644657366E-06
   -0.52835739262453381999E-06
    0.59133262393557915184E-06
   -0.46239716780471402139E-06
   -0.46239720709678488736E-06
    0.59133280187092810201E-06
   -0.52835737659251094022E-06
    0.56502087029728657652E-05
    0.56502088868439903697E-05
   -0.52520841636090390465E-06
    0.51714626120851016771E-06
   -0.47184050768648363045E-06
   -0.47183692054210322307E-06
    0.51589686705598090826E-06
   -0.52151445215834922843E-06
   -0.52857884176771161070E-06
    0.62400376550932681552E-06
   -0.45822880559009730885E-06
   -0.45703406665272543145E-06
    0.61251068553311064560E-06
   -0.52866776810275810479E-06
    0.56186490117256225222E-05
    0.56321150862760367340E-05
   -0.52151447622953512905E-06
    0.51589683875512380943E-06
   -0.47183697408224880837E-06
   -0.47184047135598405521E-06
    0.51714628858978753554E-06
   -0.52520835814064675236E-06
   -0.52866779501403806602E-06
    0.61251056158826336972E-06
   -0.45703401693594855662E-06
   -0.45822880379650911939E-06
    0.62400393009385754167E-06
   -0.52857885182739634129E-06
    0.56321149001964126329E-05
    0.56186491985877178723E-05
   -0.51912259151297568077E-06
    0.49675954151447503908E-06
   -0.47275742009319719976E-06
   -0.47275735433900475697E-06
    0.49675958637262979442E-06
   -0.51912248137088550485E-06
   -0.52903101439662984005E-06
    0.67081763040177874921E-06
   -0.44812692534688137197E-06
   -0.44812690988431011350E-06
    0.67081778514351706003E-06
   -0.52903096974373149662E-06
    0.55765179594510606319E-05
    0.55765181365829522448E-05
   -0.52703087348607194002E-06
    0.53479739490338829345E-06
   -0.47124803792500393225E-06
   -0.47125254232258031941E-06
    0.53635017623208031578E-06
   -0.52835718305536355546E-06
    0.98147865608880411844E-06
    0.56280492002653266229E-06
    0.10501304568632145129E-05
   -0.46255027018732096181E-06
    0.57359042390745751385E-06
   -0.52835941183601964808E-06
    0.56737331057209526333E-05
    0.56735162484806747258E-05
   -0.52850725125530456417E-06
    0.53450686815854112282E-06
   -0.47140231549887268631E-06
   -0.47142165061018143740E-06
    0.53533029417101031167E-06
   -0.52731761142746243199E-06
    0.98226631403808545019E-06
    0.56637956574106772629E-06
    0.10505055430466577843E-05
   -0.46272902063741951063E-06
    0.57086179485734791653E-06
   -0.52853702501684764540E-06
    0.56680259494356364445E-05
    0.56772101992768813920E-05
   -0.52849037267332291660E-06
    0.52530674280450487608E-06
   -0.47159514199342376282E-06
   -0.47161464152465318643E-06
    0.52364864012577941350E-06
   -0.52225102988010702459E-06
   -0.52850682068538694430E-06
    0.60516558403937192487E-06
   -0.46234874462411066155E-06
   -0.46022732280554427997E-06
    0.58758785941261939323E-06
   -0.52863265862687393998E-06
    0.56330692835452604881E-05
    0.56572978984913187346E-05
   -0.52863916610088924044E-06
    0.51934867874582153349E-06
   -0.47178446155668687704E-06
   -0.47189579745184722162E-06
    0.51936431931862966444E-06
   -0.51887485337039984676E-06
   -0.52653508223920184217E-06
    0.62392743307614609952E-06
   -0.46172392888715286396E-06
   -0.45725667086446530576E-06
    0.58326185751520441130E-06
   -0.52891623581829190339E-06
    0.56128875854191511213E-05
    0.56607603631391992512E-05
   -0.52864011067426483102E-06
    0.53304940057539018848E-06
   -0.47150193315845967216E-06
   -0.47154712344856329409E-06
    0.53513347233348147356E-06
   -0.52602458531100546150E-06
    0.98391176181818364974E-06
    0.56821574598525841311E-06
    0.10511335478138246157E-05
   -0.46429267841602569516E-06
    0.56269895587129583271E-06
   -0.52868813850454076021E-06
    0.56640526583938395223E-05
    0.56847792383487459592E-05
   -0.52873864412121349815E-06
    0.53243155139534201228E-06
   -0.47153267499547287700E-06
   -0.47160435808172363850E-06
    0.53579727405602273735E-06
   -0.52472809129163680332E-06
    0.98596177138646904038E-06
    0.56805463569279511606E-06
    0.10515470324052573513E-05
   -0.46660809465771466650E-06
    0.55068563351155512343E-06
   -0.52879061290730702642E-06
    0.56627144370716612869E-05
    0.56947223036419366161E-05
   -0.52879911437790225303E-06
    0.51482185322896708622E-06
   -0.47185077302552378095E-06
   -0.47210230016013737967E-06
    0.51719699918670249132E-06
   -0.51567707920495758259E-06
   -0.52369720899876195351E-06
    0.63768676394229175327E-06
   -0.46232211004930086868E-06
   -0.45524661111645267551E-06
    0.56986371331957326671E-06
   -0.52917269304868353084E-06
    0.55978320429064658427E-05
    0.56708449729587541172E-05
   -0.52896701788517784179E-06
    0.51266854182189861994E-06
   -0.47181088937291756728E-06
   -0.47219330951303513179E-06
    0.51745021437624986466E-06
   -0.51328773700497251587E-06
   -0.52085101493470396180E-06
    0.64385150343564951673E-06
   -0.46402252387631391228E-06
   -0.45466911515381345411E-06
    0.55088856038567495495E-06
   -0.52934675650033658841E-06
    0.55910842588151701046E-05
    0.56850278095683846961E-05
   -0.52853040902243862731E-06
    0.50853519667904224300E-06
   -0.47241117582027618924E-06
   -0.47242866186221894021E-06
    0.50363348623580725924E-06
   -0.51525359491335983469E-06
   -0.52697713629195146310E-06
    0.66819907137939265421E-06
   -0.45413241118980162248E-06
   -0.44982641228630338935E-06
    0.62491695460496811172E-06
   -0.52919270567099044483E-06
    0.55739098725086665050E-05
    0.56212814970970377668E-05
   -0.52846730741269064333E-06
    0.49496402097110744913E-06
   -0.47258451756462066263E-06
   -0.47301188705832154142E-06
    0.49352210322232597218E-06
   -0.50770876597731768369E-06
   -0.52162597512967153645E-06
    0.71215211633837947874E-06
   -0.45168570056914569266E-06
   -0.44247913743372710690E-06
    0.61742819676237625047E-06
   -0.52977082431680316976E-06
    0.55262919674753355242E-05
    0.56256024650574609389E-05
   -0.52174507240906772026E-06
    0.47420690660327730858E-06
   -0.47407573097031260007E-06
   -0.47408079534561129926E-06
    0.46870358144270460366E-06
   -0.50603907103200340815E-06
   -0.52752140744984413365E-06
    0.76607210672311519660E-06
   -0.43727495797659349805E-06
   -0.43205808420243087246E-06
    0.70920774019267727456E-06
   -0.52995735285416146248E-06
    0.54805469592034853360E-05
    0.55425168886713830263E-05
   -0.52538643871232963283E-06
    0.45079900068237891299E-06
   -0.47343020770152489742E-06
   -0.47532837420424795283E-06
    0.44599762623101803327E-06
   -0.48957825864192227905E-06
   -0.51432139846670742940E-06
    0.86570953938052151426E-06
   -0.42963963928998124167E-06
   -0.41419554684560059419E-06
    0.69537227777312441269E-06
   -0.53138304216822699800E-06
    0.53676847487968466928E-05
    0.55490532509433537013E-05
   -0.52856080619889532850E-06
    0.48494487721285573630E-06
   -0.47236582348575325427E-06
   -0.47343111139331528060E-06
    0.48847346370354709592E-06
   -0.50108250956908811845E-06
   -0.51515652907554181014E-06
    0.74448592373109382911E-06
   -0.45197516449047462164E-06
   -0.43760227022118606088E-06
    0.59018811032691474085E-06
   -0.53031507727932413173E-06
    0.54918901351001355913E-05
    0.56439543108083812940E-05
   -0.52892043750076116458E-06
    0.48036211094381935124E-06
   -0.47199416106034981318E-06
   -0.47360057282452025684E-06
    0.48856322795633046068E-06
   -0.49657813832643054889E-06
   -0.50935074925113426612E-06
    0.75911207686077842522E-06
   -0.45471836373949171431E-06
   -0.43624473565270401935E-06
    0.55421977943993524251E-06
   -0.53069276448392089816E-06
    0.54770628835865209493E-05
    0.56693628284681497431E-05
   -0.52459238082215306704E-06
    0.43064113202097055091E-06
   -0.47108951206160358958E-06
   -0.47602385981333984886E-06
    0.43666644097135251089E-06
   -0.47662557511719287395E-06
   -0.49874797319447838912E-06
    0.93387986066316122244E-06
   -0.42955403395086266631E-06
   -0.40431682203614381848E-06
    0.63069766500888977264E-06
   -0.53252140842649943787E-06
    0.52960118162590636210E-05
    0.55881436563053662670E-05
   -0.52530716846986964431E-06
    0.42259111735806407018E-06
   -0.46908922129193472958E-06
   -0.47616591514793357602E-06
    0.43696874514239812493E-06
   -0.46847239011114406309E-06
   -0.48611082855401988782E-06
    0.96306962390162312505E-06
   -0.43505536651509979797E-06
   -0.40312377196984424793E-06
    0.55955687952576994382E-06
   -0.53324765230596650492E-06
    0.52688594074562452891E-05
    0.56356468570659676905E-05
   -0.52835720086451958032E-06
    0.53635022217497743887E-06
   -0.47125265546893494653E-06
   -0.47124788929239419174E-06
    0.53479739168629511462E-06
   -0.52703077447282493852E-06
   -0.52835943741259760706E-06
    0.57359032034632205898E-06
   -0.46255038029656404708E-06
    0.10501304611652652058E-05
    0.56280492495296278676E-06
    0.98147865699796269721E-06
    0.56735159907677343145E-05
    0.56737332709769798457E-05
   -0.52225110174571576781E-06
    0.52364858518359196550E-06
   -0.47161472031777054608E-06
   -0.47159509257183485255E-06
    0.52530674520875167505E-06
   -0.52849030214867130218E-06
   -0.52863270667322481577E-06
    0.58758765893205727797E-06
   -0.46022734932798879044E-06
   -0.46234880665996362059E-06
    0.60516576408326635454E-06
   -0.52850683152866376023E-06
    0.56572980962263533591E-05
    0.56330698580176445864E-05
   -0.52731763640493123452E-06
    0.53533031180654448762E-06
   -0.47142172982948315976E-06
   -0.47140220940487514981E-06
    0.53450684465107830673E-06
   -0.52850714631014723728E-06
   -0.52853706769563840234E-06
    0.57086168285622296813E-06
   -0.46272912488108056187E-06
    0.10505055752146457096E-05
    0.56637956086901065841E-06
    0.98226628484894426430E-06
    0.56772099760380735138E-05
    0.56680261267291436378E-05
   -0.51887491064125281445E-06
    0.51936427005281381895E-06
   -0.47189589491009827425E-06
   -0.47178436678784012967E-06
    0.51934864719393583370E-06
   -0.52863914661865266821E-06
   -0.52891626984048990154E-06
    0.58326165030502408125E-06
   -0.45725664802344589498E-06
   -0.46172401411016609470E-06
    0.62392760147885835932E-06
   -0.52653506184186899021E-06
    0.56607605490966329205E-05
    0.56128881319397283282E-05
   -0.51525361131530963697E-06
    0.50363350193089292632E-06
   -0.47242876052649180852E-06
   -0.47241117898106274703E-06
    0.50853515457281791219E-06
   -0.52853034582712721246E-06
   -0.52919275811919674107E-06
    0.62491683948210958897E-06
   -0.44982646894410879699E-06
   -0.45413244179661279952E-06
    0.66819924742976284802E-06
   -0.52697711922321975996E-06
    0.56212813173537266368E-05
    0.55739100485674063372E-05
   -0.50603911120895254757E-06
    0.46870361808619783480E-06
   -0.47408091244776564412E-06
   -0.47407570396216340990E-06
    0.47420689370023087602E-06
   -0.52174497710972402626E-06
   -0.52995739553577262738E-06
    0.70920759167330472180E-06
   -0.43205814872978349437E-06
   -0.43727500372420246353E-06
    0.76607226482871250854E-06
   -0.52752141321504863414E-06
    0.55425166946924169035E-05
    0.54805471654013184632E-05
   -0.50770881650445262028E-06
    0.49352210033827905430E-06
   -0.47301199391938825036E-06
   -0.47258447678583402068E-06
    0.49496404149229335276E-06
   -0.52846723448228313487E-06
   -0.52977080862290027831E-06
    0.61742809656750738199E-06
   -0.44247918805634023258E-06
   -0.45168573762268339134E-06
    0.71215228642401152649E-06
   -0.52162595011163504382E-06
    0.56256022479386465226E-05
    0.55262921539739038150E-05
   -0.48957827472990364932E-06
    0.44599764852207096866E-06
   -0.47532848479158258566E-06
   -0.47343016105097489264E-06
    0.45079899020679555252E-06
   -0.52538641630609424559E-06
   -0.53138309034691703092E-06
    0.69537217891508095218E-06
   -0.41419558683756525535E-06
   -0.42963966180594000635E-06
    0.86570969648246758118E-06
   -0.51432134604969587430E-06
    0.55490530369772475837E-05
    0.53676849482924613211E-05
   -0.52602461509210938686E-06
    0.53513348534332383180E-06
   -0.47154716202248728131E-06
   -0.47150185914311667244E-06
    0.53304935444869062160E-06
   -0.52864003610794256921E-06
   -0.52868818011205252634E-06
    0.56269885972311734062E-06
   -0.46429278135737877807E-06
    0.10511335701050164115E-05
    0.56821577618735243045E-06
    0.98391177026767230013E-06
    0.56847790333622351682E-05
    0.56640528147817468732E-05
   -0.51567714854352198410E-06
    0.51719692896392367842E-06
   -0.47210240256173380472E-06
   -0.47185076879391224201E-06
    0.51482187450369732252E-06
   -0.52879904354923092620E-06
   -0.52917270656316747263E-06
    0.56986348095073531638E-06
   -0.45524662239155355833E-06
   -0.46232217493645709884E-06
    0.63768693629280752802E-06
   -0.52369717567437786116E-06
    0.56708451789581875642E-05
    0.55978325971707681782E-05
   -0.52472813943493176459E-06
    0.53579726153053022961E-06
   -0.47160446520860818571E-06
   -0.47153260841488343301E-06
    0.53243156480934105911E-06
   -0.52873860135014527787E-06
   -0.52879058917825732083E-06
    0.55068552362788157070E-06
   -0.46660819665992939239E-06
    0.10515470447885671203E-05
    0.56805467232618530878E-06
    0.98596175944749348554E-06
    0.56947221024315266560E-05
    0.56627145777850774121E-05
   -0.51328780939707258690E-06
    0.51745012440111217865E-06
   -0.47219339480961142699E-06
   -0.47181089097264649078E-06
    0.51266852349931431525E-06
   -0.52896694523172204911E-06
   -0.52934676630579030912E-06
    0.55088832657638611528E-06
   -0.45466916186106230913E-06
   -0.46402255941966026392E-06
    0.64385169767209618544E-06
   -0.52085096185860929418E-06
    0.56850280025898995037E-05
    0.55910847721184846171E-05
   -0.50108255076026921497E-06
    0.48847342030466906656E-06
   -0.47343119996158084559E-06
   -0.47236579495649520352E-06
    0.48494488412493056540E-06
   -0.52856070311083253923E-06
   -0.53031510296164864846E-06
    0.59018802653476647464E-06
   -0.43760226382855566900E-06
   -0.45197523997193509130E-06
    0.74448607258178787199E-06
   -0.51515647803799741914E-06
    0.56439540815692843440E-05
    0.54918902987756459109E-05
   -0.47662564025558092914E-06
    0.43666644165156507204E-06
   -0.47602398101160894258E-06
   -0.47108949260111247070E-06
    0.43064113709445284774E-06
   -0.52459231355139058972E-06
   -0.53252141249329297659E-06
    0.63069754596141907350E-06
   -0.40431688311233793561E-06
   -0.42955403499740342462E-06
    0.93388008554530650962E-06
   -0.49874791884560120413E-06