# vtk DataFile Version 3.0
LAPLACIEN  2D
ASCII
DATASET UNSTRUCTURED_GRID
 POINTS        1857  float
   3.1250000000000000E-002  0.93750000000000000        0.0000000000000000     
   6.2500000000000000E-002  0.93750000000000000        0.0000000000000000     
   6.2500000000000000E-002  0.96875000000000000        0.0000000000000000     
   1.8749999999999999E-002  0.95625000000000004        0.0000000000000000     
   4.0625000000000001E-002  0.95937499999999998        0.0000000000000000     
   4.3749999999999997E-002  0.98124999999999996        0.0000000000000000     
   2.1874999999999999E-002  0.97812500000000002        0.0000000000000000     
   9.3750000000000000E-002  0.93750000000000000        0.0000000000000000     
  0.12500000000000000       0.93750000000000000        0.0000000000000000     
  0.12500000000000000       0.96875000000000000        0.0000000000000000     
   8.1250000000000003E-002  0.95625000000000004        0.0000000000000000     
  0.10312499999999999       0.95937499999999998        0.0000000000000000     
  0.10625000000000000       0.98124999999999996        0.0000000000000000     
   8.4375000000000006E-002  0.97812500000000002        0.0000000000000000     
   3.1250000000000000E-002  0.87500000000000000        0.0000000000000000     
   6.2500000000000000E-002  0.87500000000000000        0.0000000000000000     
   6.2500000000000000E-002  0.90625000000000000        0.0000000000000000     
   1.8749999999999999E-002  0.89375000000000004        0.0000000000000000     
   4.0625000000000001E-002  0.89687499999999998        0.0000000000000000     
   4.3749999999999997E-002  0.91874999999999996        0.0000000000000000     
   2.1874999999999999E-002  0.91562500000000002        0.0000000000000000     
   9.3750000000000000E-002  0.87500000000000000        0.0000000000000000     
  0.12500000000000000       0.87500000000000000        0.0000000000000000     
  0.12500000000000000       0.90625000000000000        0.0000000000000000     
   8.1250000000000003E-002  0.89375000000000004        0.0000000000000000     
  0.10312499999999999       0.89687499999999998        0.0000000000000000     
  0.10625000000000000       0.91874999999999996        0.0000000000000000     
   8.4375000000000006E-002  0.91562500000000002        0.0000000000000000     
  0.15625000000000000       0.93750000000000000        0.0000000000000000     
  0.18750000000000000       0.93750000000000000        0.0000000000000000     
  0.18750000000000000       0.96875000000000000        0.0000000000000000     
  0.14374999999999999       0.95625000000000004        0.0000000000000000     
  0.16562499999999999       0.95937499999999998        0.0000000000000000     
  0.16875000000000001       0.98124999999999996        0.0000000000000000     
  0.14687500000000001       0.97812500000000002        0.0000000000000000     
  0.21875000000000000       0.93750000000000000        0.0000000000000000     
  0.25000000000000000       0.93750000000000000        0.0000000000000000     
  0.25000000000000000       0.96875000000000000        0.0000000000000000     
  0.20624999999999999       0.95625000000000004        0.0000000000000000     
  0.22812499999999999       0.95937499999999998        0.0000000000000000     
  0.23125000000000001       0.98124999999999996        0.0000000000000000     
  0.20937500000000001       0.97812500000000002        0.0000000000000000     
  0.15625000000000000       0.87500000000000000        0.0000000000000000     
  0.18750000000000000       0.87500000000000000        0.0000000000000000     
  0.18750000000000000       0.90625000000000000        0.0000000000000000     
  0.14374999999999999       0.89375000000000004        0.0000000000000000     
  0.16562499999999999       0.89687499999999998        0.0000000000000000     
  0.16875000000000001       0.91874999999999996        0.0000000000000000     
  0.14687500000000001       0.91562500000000002        0.0000000000000000     
  0.21875000000000000       0.87500000000000000        0.0000000000000000     
  0.25000000000000000       0.87500000000000000        0.0000000000000000     
  0.25000000000000000       0.90625000000000000        0.0000000000000000     
  0.20624999999999999       0.89375000000000004        0.0000000000000000     
  0.22812499999999999       0.89687499999999998        0.0000000000000000     
  0.23125000000000001       0.91874999999999996        0.0000000000000000     
  0.20937500000000001       0.91562500000000002        0.0000000000000000     
   3.1250000000000000E-002  0.81250000000000000        0.0000000000000000     
   6.2500000000000000E-002  0.81250000000000000        0.0000000000000000     
   6.2500000000000000E-002  0.84375000000000000        0.0000000000000000     
   1.8749999999999999E-002  0.83125000000000004        0.0000000000000000     
   4.0625000000000001E-002  0.83437499999999998        0.0000000000000000     
   4.3749999999999997E-002  0.85624999999999996        0.0000000000000000     
   2.1874999999999999E-002  0.85312500000000002        0.0000000000000000     
   9.3750000000000000E-002  0.81250000000000000        0.0000000000000000     
  0.12500000000000000       0.81250000000000000        0.0000000000000000     
  0.12500000000000000       0.84375000000000000        0.0000000000000000     
   8.1250000000000003E-002  0.83125000000000004        0.0000000000000000     
  0.10312499999999999       0.83437499999999998        0.0000000000000000     
  0.10625000000000000       0.85624999999999996        0.0000000000000000     
   8.4375000000000006E-002  0.85312500000000002        0.0000000000000000     
   3.1250000000000000E-002  0.75000000000000000        0.0000000000000000     
   6.2500000000000000E-002  0.75000000000000000        0.0000000000000000     
   6.2500000000000000E-002  0.78125000000000000        0.0000000000000000     
   1.8749999999999999E-002  0.76875000000000004        0.0000000000000000     
   4.0625000000000001E-002  0.77187499999999998        0.0000000000000000     
   4.3749999999999997E-002  0.79374999999999996        0.0000000000000000     
   2.1874999999999999E-002  0.79062500000000002        0.0000000000000000     
   9.3750000000000000E-002  0.75000000000000000        0.0000000000000000     
  0.12500000000000000       0.75000000000000000        0.0000000000000000     
  0.12500000000000000       0.78125000000000000        0.0000000000000000     
   8.1250000000000003E-002  0.76875000000000004        0.0000000000000000     
  0.10312499999999999       0.77187499999999998        0.0000000000000000     
  0.10625000000000000       0.79374999999999996        0.0000000000000000     
   8.4375000000000006E-002  0.79062500000000002        0.0000000000000000     
  0.15625000000000000       0.81250000000000000        0.0000000000000000     
  0.18750000000000000       0.81250000000000000        0.0000000000000000     
  0.18750000000000000       0.84375000000000000        0.0000000000000000     
  0.14374999999999999       0.83125000000000004        0.0000000000000000     
  0.16562499999999999       0.83437499999999998        0.0000000000000000     
  0.16875000000000001       0.85624999999999996        0.0000000000000000     
  0.14687500000000001       0.85312500000000002        0.0000000000000000     
  0.21875000000000000       0.81250000000000000        0.0000000000000000     
  0.25000000000000000       0.81250000000000000        0.0000000000000000     
  0.25000000000000000       0.84375000000000000        0.0000000000000000     
  0.20624999999999999       0.83125000000000004        0.0000000000000000     
  0.22812499999999999       0.83437499999999998        0.0000000000000000     
  0.23125000000000001       0.85624999999999996        0.0000000000000000     
  0.20937500000000001       0.85312500000000002        0.0000000000000000     
  0.15625000000000000       0.75000000000000000        0.0000000000000000     
  0.18750000000000000       0.75000000000000000        0.0000000000000000     
  0.18750000000000000       0.78125000000000000        0.0000000000000000     
  0.14374999999999999       0.76875000000000004        0.0000000000000000     
  0.16562499999999999       0.77187499999999998        0.0000000000000000     
  0.16875000000000001       0.79374999999999996        0.0000000000000000     
  0.14687500000000001       0.79062500000000002        0.0000000000000000     
  0.21875000000000000       0.75000000000000000        0.0000000000000000     
  0.25000000000000000       0.75000000000000000        0.0000000000000000     
  0.25000000000000000       0.78125000000000000        0.0000000000000000     
  0.20624999999999999       0.76875000000000004        0.0000000000000000     
  0.22812499999999999       0.77187499999999998        0.0000000000000000     
  0.23125000000000001       0.79374999999999996        0.0000000000000000     
  0.20937500000000001       0.79062500000000002        0.0000000000000000     
  0.28125000000000000       0.93750000000000000        0.0000000000000000     
  0.31250000000000000       0.93750000000000000        0.0000000000000000     
  0.31250000000000000       0.96875000000000000        0.0000000000000000     
  0.26874999999999999       0.95625000000000004        0.0000000000000000     
  0.29062500000000002       0.95937499999999998        0.0000000000000000     
  0.29375000000000001       0.98124999999999996        0.0000000000000000     
  0.27187499999999998       0.97812500000000002        0.0000000000000000     
  0.34375000000000000       0.93750000000000000        0.0000000000000000     
  0.37500000000000000       0.93750000000000000        0.0000000000000000     
  0.37500000000000000       0.96875000000000000        0.0000000000000000     
  0.33124999999999999       0.95625000000000004        0.0000000000000000     
  0.35312500000000002       0.95937499999999998        0.0000000000000000     
  0.35625000000000001       0.98124999999999996        0.0000000000000000     
[...]
 CELL_DATA        3584
 SCALARS Tumor_cells float
 LOOKUP_TABLE default
   -0.28130820281258338769E-06
    0.24211447240194880282E-06
   -0.27004291626710547840E-06
   -0.27004291532572666629E-06
    0.24211444884145193041E-06
   -0.28130818748671107080E-06
    0.45911340565063756190E-06
    0.24334237128832623531E-06
    0.48775516897292429407E-06
    0.48775514657527866795E-06
    0.24334234302473853322E-06
    0.45911340597668621898E-06
    0.25229272676788002785E-05
    0.25229273359774952591E-05
   -0.28108715261630670770E-06
    0.24163216337545406237E-06
   -0.27005026278497535328E-06
   -0.27003677707401141920E-06
    0.24165198752369278858E-06
   -0.28134485789397333583E-06
    0.45875735884186843986E-06
    0.24390458557662362397E-06
    0.48765160208026356187E-06
   -0.26931745178237807234E-06
    0.24500603850610268483E-06
   -0.28126905619791765910E-06
    0.25224988719204633152E-05
    0.25216451191550993631E-05
   -0.28134487520345774297E-06
    0.24165199254174281413E-06
   -0.27003676851636317300E-06
   -0.27005023971192280743E-06
    0.24163218723397360097E-06
   -0.28108711417618300945E-06
   -0.28126905355411178438E-06
    0.24500601635560729667E-06
   -0.26931744258131099980E-06
    0.48765161098261827163E-06
    0.24390457128447915682E-06
    0.45875735582693788509E-06
    0.25216449188132729860E-05
    0.25224987333739010411E-05
   -0.28117630917672451592E-06
    0.24101450050905470856E-06
   -0.27003948915009063897E-06
   -0.27003949467620357296E-06
    0.24101450152324849622E-06
   -0.28117628367680801498E-06
   -0.28130734486964589081E-06
    0.24587190120830962605E-06
   -0.26930614427382008524E-06
   -0.26930615267342299490E-06
    0.24587196859050606385E-06
   -0.28130732168592129062E-06
    0.25206440824493493723E-05
    0.25206441205900812814E-05
   -0.28093801375591625483E-06
    0.24109460675293068650E-06
   -0.27006146333707854549E-06
   -0.27004797776134993300E-06
    0.24121085926225597854E-06
   -0.28138748188309402650E-06
    0.45844623009284880196E-06
    0.24465654734532198143E-06
    0.48757570017394006356E-06
   -0.26876388600882729476E-06
    0.24666671693463592355E-06
   -0.28119958963686040383E-06
    0.25218106516311512811E-05
    0.25205372097764412516E-05
   -0.28094891157262159387E-06
    0.24061526981985466164E-06
   -0.27007348534250573781E-06
   -0.27007856349961933554E-06
    0.24086147065661738594E-06
   -0.28142993155827837062E-06
    0.45823713468566558598E-06
    0.24555509253439522424E-06
    0.48753851332881685598E-06
   -0.26830385665607545604E-06
    0.24804151328819520348E-06
   -0.28125066551351370846E-06
    0.25208577584696435078E-05
    0.25198001181270687089E-05
   -0.28103252309882647337E-06
    0.24002196989713981345E-06
   -0.27003977619139247718E-06
   -0.27005167242757401598E-06
    0.24009268823560691045E-06
   -0.28106540314707389273E-06
   -0.28133601488881951437E-06
    0.24781598596751533608E-06
   -0.26883157089937199649E-06
   -0.26885172687214968729E-06
    0.24844466717563250194E-06
   -0.28133378080399217819E-06
    0.25187600817732244675E-05
    0.25188209262424189460E-05
   -0.28118391435687482391E-06
    0.23896710621924099110E-06
   -0.27003171238497489272E-06
   -0.27009355716615805015E-06
    0.23889047877674893647E-06
   -0.28068514804668404481E-06
   -0.28137402036594751731E-06
    0.25101363469146896338E-06
   -0.26835915677442862931E-06
   -0.26821429322322494488E-06
    0.25056856183337011486E-06
   -0.28137833301271103666E-06
    0.25158593736269359150E-05
    0.25173189502955648887E-05
   -0.28138748797548241998E-06
    0.24121082354422273994E-06
   -0.27004797848790027856E-06
   -0.27006142696937320686E-06
    0.24109459367314913543E-06
   -0.28093800355373898316E-06
   -0.28119957904860482660E-06
    0.24666668015023394413E-06
   -0.26876389188900323001E-06
    0.48757567627533426721E-06
    0.24465654000091047169E-06
    0.45844624526354245945E-06
    0.25205371644131275873E-05
    0.25218106808121444336E-05
   -0.28106543934193601748E-06
    0.24009266896199153558E-06
   -0.27005165655736767518E-06
   -0.27003974299682931300E-06
    0.24002195746717631677E-06
   -0.28103247606164875628E-06
   -0.28133378767890253675E-06
    0.24844459948773869711E-06
   -0.26885172690134013672E-06
   -0.26883157485840552720E-06
    0.24781599453340203647E-06
   -0.28133601385822092198E-06
    0.25188210634676924081E-05
    0.25187602828308669534E-05
   -0.28142994525578442709E-06
    0.24086148797563970170E-06
   -0.27007858574294858181E-06
   -0.27007347666722499698E-06
    0.24061523925861004551E-06
   -0.28094887983552467569E-06
   -0.28125066767230248248E-06
    0.24804149212001705326E-06
   -0.26830385248723842879E-06
    0.48753851502386382640E-06
    0.24555505730717167997E-06
    0.45823712750753696700E-06
    0.25198000904515216132E-05
    0.25208577694936057922E-05
   -0.28068518306789758254E-06
    0.23889042738253093573E-06
   -0.27009353846667055372E-06
   -0.27003170672591044972E-06
    0.23896708991901629883E-06
   -0.28118387263953623644E-06
   -0.28137834300496633306E-06
    0.25056850667319180279E-06
   -0.26821427199471592008E-06
   -0.26835915751877021372E-06
    0.25101364054670295471E-06
   -0.28137403880598786909E-06
    0.25173191203843843214E-05
    0.25158595788532391923E-05
   -0.28076527264323607286E-06
    0.23826168881856387818E-06
   -0.27004910071021936880E-06
   -0.27004909483065043854E-06
    0.23826165266362051042E-06
   -0.28076528178709056967E-06
   -0.28137784310663139581E-06
    0.25234689797815812085E-06
   -0.26798745187173970484E-06
   -0.26798746665883225754E-06
    0.25234691417580977018E-06
   -0.28137785424924695538E-06
    0.25153448642838051505E-05
    0.25153448973958904931E-05
   -0.28091389150792661390E-06
    0.23601359066175998145E-06
   -0.27002356998388833321E-06
   -0.27010838997245058192E-06
    0.23570513330386386962E-06
   -0.27993283153048486822E-06
   -0.28143697360941663632E-06
    0.25920535762669367967E-06
   -0.26697964108051365188E-06
   -0.26666930639457623189E-06
    0.25674391499321073514E-06
   -0.28145324837165137445E-06
    0.25094462815419263033E-05
    0.25119689876451338477E-05
   -0.27993282891918991796E-06
    0.23570513884064232484E-06
   -0.27010839033705294945E-06
   -0.27002356831090440054E-06
    0.23601358409444061149E-06
   -0.28091387601350299908E-06
   -0.28145324549128105602E-06
    0.25674390974685489006E-06
   -0.26666927745791470939E-06
   -0.26697964054540815781E-06
    0.25920539385592427214E-06
   -0.28143696547792485370E-06
    0.25119689642769830699E-05
    0.25094463080551066026E-05
   -0.27957690950067130533E-06
    0.23103845785043468190E-06
   -0.27008672933125256088E-06
   -0.27008672542890633958E-06
    0.23103848138471509050E-06
   -0.27957687748917726979E-06
   -0.28155670601600966730E-06
    0.26902462454116797471E-06
   -0.26456383727061106885E-06
   -0.26456384246261709781E-06
    0.26902466275956666416E-06
   -0.28155669880851351606E-06
    0.25016082316336727664E-05
    0.25016082496639688709E-05
   -0.28117526377637658484E-06
    0.24031459092379889465E-06
   -0.27008389153248390061E-06
   -0.27012795329704448557E-06
    0.24069217196148960484E-06
   -0.28145616411250057530E-06
    0.45819977559187384522E-06
    0.24647471718653996916E-06
    0.48755633509109087539E-06
   -0.26804227447575596039E-06
    0.24868780949911604865E-06
   -0.28137596573087145424E-06
    0.25197340347365893736E-05
    0.25196919250907435137E-05
   -0.28157328894063285598E-06
    0.24024719365327652220E-06
   -0.27009062533306732682E-06
   -0.27019034150353359058E-06
    0.24044416440281918875E-06
   -0.28118992048066363552E-06
    0.45837618879452076404E-06
    0.24721557069277631981E-06
    0.48763906993079969028E-06
   -0.26808558678243269866E-06
    0.24808990562911452390E-06
   -0.28141697553800936117E-06
    0.25186666733944262275E-05
    0.25203793159160361394E-05
   -0.28168618114176392734E-06
    0.23800958750507066775E-06
   -0.27001096478572493748E-06
   -0.27016981183113275499E-06
    0.23759723769394634617E-06
   -0.28001939957788407821E-06
   -0.28141565027999260153E-06
    0.25527219876273957811E-06
   -0.26798970612824401601E-06
   -0.26744337234996216486E-06
    0.25150108430139021468E-06
   -0.28143978386483368002E-06
    0.25121354927261169292E-05
    0.25166729538052683077E-05
   -0.28184457728703359926E-06
    0.23659947278991556165E-06
   -0.26997947895367370565E-06
   -0.27027186211987869575E-06
    0.23654958146142935009E-06
   -0.27918035862438855447E-06
   -0.28096108839693671073E-06
    0.25919056588486145683E-06
   -0.26785412165067395444E-06
   -0.26669538287566917530E-06
    0.25050917401535602502E-06
   -0.28150660426256570847E-06
    0.25083554543346254178E-05
    0.25173368172407026850E-05
   -0.28164257139623378892E-06
    0.23991894441752591372E-06
   -0.27009419064958375457E-06
   -0.27025411503238929527E-06
    0.24039619788164390862E-06
   -0.28085127920773891756E-06
    0.45874656997749920526E-06
    0.24758950374196958039E-06
    0.48777845176424922459E-06
   -0.26847087732208298071E-06
    0.24634755892904724468E-06
   -0.28145256310297729146E-06
    0.25179235262465023266E-05
    0.25217922578851798298E-05
   -0.28168779067380428715E-06
    0.23979670629590718032E-06
   -0.27009459444985988038E-06
   -0.27030630454519834448E-06
    0.24055715675069542813E-06
   -0.28050789386183119040E-06
    0.45920907584828885907E-06
    0.24754758145271420521E-06
    0.48786684153896951540E-06
   -0.26904132249759835594E-06
    0.24380247200303028009E-06
   -0.28147668981659323999E-06
    0.25176727182267079226E-05
    0.25236482100120562843E-05
   -0.28198467587682723102E-06
    0.23554908985004430061E-06
   -0.26994995067944364964E-06
   -0.27037638439702162900E-06
    0.23601950173297938675E-06
   -0.27836553591368387873E-06
   -0.28030694105518834663E-06
    0.26205100449917518667E-06
   -0.26802049551706272230E-06
   -0.26617473964142389736E-06
    0.24759218511300392998E-06
   -0.28156653160602831914E-06
    0.25055328941689259836E-05
    0.25192508473229146468E-05
   -0.28207781844890953664E-06
    0.23507686519077428717E-06
   -0.26993030631788069918E-06
   -0.27046050827693381326E-06
    0.23608232839146552245E-06
   -0.27774207788593183805E-06
   -0.27964950038857644943E-06
    0.26331653882741248084E-06
   -0.26845182226240635037E-06
   -0.26600446042741230099E-06
    0.24350877784414265772E-06
   -0.28160655022119796620E-06
    0.25042683931563367763E-05
    0.25219303920294598824E-05
   -0.28195856341856180083E-06
    0.23391916810823418005E-06
   -0.26996022171615118737E-06
   -0.27024486324516884417E-06
    0.23270330173685995013E-06
   -0.27842056141450679375E-06
   -0.28108544328574034200E-06
    0.26849812253534141166E-06
   -0.26603015066364054224E-06
   -0.26489874656655625122E-06
    0.25927065695978395353E-06
   -0.28157114177781967076E-06
    0.25010778908361919004E-05
    0.25099752362799791804E-05
   -0.28226635802615846467E-06
    0.23070811678968280897E-06
   -0.26984822940503006452E-06
   -0.27044657325586048872E-06
    0.23022746086766896136E-06
   -0.27653142063833807586E-06
   -0.27989270239682440873E-06
    0.27769761522417439902E-06
   -0.26551391239436689635E-06
   -0.26306337995607769535E-06
    0.25754774220696915380E-06
   -0.28170544817993426020E-06
    0.24921752019894159845E-05
    0.25108735575064067695E-05
   -0.28078924974825338490E-06
    0.22556014764281620873E-06
   -0.26995736147718620088E-06
   -0.27034518154696175629E-06
    0.22417245658150674340E-06
   -0.27642835518753220390E-06
   -0.28128237512446966601E-06
    0.28914946981764031958E-06
   -0.26217585083317640449E-06
   -0.26077001039099772236E-06
    0.27711044751950368126E-06
   -0.28177833082827630557E-06
    0.24837690822531507426E-05
    0.24954150323548349844E-05
   -0.28279366140814954774E-06
    0.21999137261402058964E-06
   -0.26961147514498064131E-06
   -0.27081269081856564381E-06
    0.21863898976661864657E-06
   -0.27223249550102961773E-06
   -0.27849176582083289249E-06
    0.30998955639870340033E-06
   -0.26071816348658736880E-06
   -0.25643822840006574739E-06
    0.27404425051212765642E-06
   -0.28211616873614321578E-06
    0.24627881144586486805E-05
    0.24971585755827313186E-05
   -0.28253599479131862821E-06
    0.22839481397039269287E-06
   -0.26974248645086679398E-06
   -0.27064810092513086206E-06
    0.22900625300178138698E-06
   -0.27482933741615147948E-06
   -0.27846028744732561902E-06
    0.28440078829775302384E-06
   -0.26565721918404811786E-06
   -0.26178367374792372819E-06
    0.25157351551438147073E-06
   -0.28182693743712817009E-06
    0.24857708734394064881E-05
    0.25144439302859082657E-05
   -0.28272000792592184257E-06
    0.22740702590350572316E-06
   -0.26967295748202700657E-06
   -0.27080152639293100690E-06
    0.22904722139383149641E-06
   -0.27364713131605095574E-06
   -0.27717006343158102463E-06
    0.28734029131412119000E-06
   -0.26635794999327623842E-06
   -0.26134852257139802989E-06
    0.24375709070630936745E-06
   -0.28190476638926927086E-06
    0.24830559607934393831E-05
    0.25193050049385503115E-05
   -0.28330406509323522379E-06
    0.21537958106945016602E-06
   -0.26927213479921501289E-06
   -0.27122215728998845818E-06
    0.21652167963305369586E-06
   -0.26885919923890261811E-06
   -0.27526219694126691413E-06
    0.32372924681423701499E-06
   -0.26100686413067620529E-06
   -0.25378704457171899167E-06
    0.25969857177113496420E-06
   -0.28239516586603710898E-06
    0.24498322311475683403E-05
    0.25052303520416606275E-05
   -0.28366724598062302341E-06
    0.21374016430783267704E-06
   -0.26906175515498105139E-06
   -0.27149532315277747045E-06
    0.21672910852225875978E-06
   -0.26673223323356881306E-06
   -0.27266464843211076805E-06
    0.32904905251007339468E-06
   -0.26242259510544372363E-06
   -0.25319760739091329435E-06
    0.24413870295291504771E-06
   -0.28255469393386242970E-06
    0.24453648000403163555E-05
    0.25144968121631272163E-05
   -0.28145616205783618507E-06
    0.24069220946573289948E-06
   -0.27012799444224296918E-06
   -0.27008383903650266974E-06
    0.24031460078708659563E-06
   -0.28117522942006421719E-06
   -0.28137596775339194998E-06
    0.24868780105485295627E-06
   -0.26804230687915250004E-06
    0.48755636043007916317E-06
    0.24647467996372723583E-06
    0.45819978195661059512E-06
    0.25196918779891907632E-05
    0.25197340706311677836E-05
   -0.28001942554271123527E-06
    0.23759723393164812886E-06
   -0.27016984009950254040E-06
   -0.27001095388378600776E-06
    0.23800957455407454708E-06
   -0.28168616473026451679E-06
   -0.28143979638735463736E-06
    0.25150103783339492121E-06
   -0.26744338019422777499E-06
   -0.26798975161038279731E-06
    0.25527224245853664268E-06
   -0.28141565497485794720E-06
    0.25166730889170937695E-05
    0.25121357106574032310E-05
   -0.28118992546975572219E-06
    0.24044418281899883416E-06
   -0.27019036079610138058E-06
   -0.27009060742582822186E-06
    0.24024715438504386329E-06
   -0.28157323686276238741E-06
   -0.28141699155149026620E-06
    0.24808990558799366835E-06
   -0.26808559644671662613E-06
    0.48763907215775656416E-06
    0.24721555069752704330E-06
    0.45837619610962615141E-06
    0.25203792741904600507E-05
    0.25186667103736493847E-05
   -0.27918034994121272541E-06
    0.23654956397841809408E-06
   -0.27027189960764079388E-06
   -0.26997945627325825325E-06
    0.23659945570086483512E-06
   -0.28184459572362938568E-06
   -0.28150660470388919692E-06
    0.25050910548206378182E-06
   -0.26669535804145836692E-06
   -0.26785416550069030771E-06
    0.25919060417003784156E-06
   -0.28096109372608737943E-06
    0.25173369467255688465E-05
    0.25083556597673146254E-05
   -0.27842055446065524091E-06
    0.23270333610173200923E-06
   -0.27024488431955265386E-06
   -0.26996025387192918572E-06
    0.23391915106869340279E-06
   -0.28195854099758745797E-06
   -0.28157116817642632321E-06
    0.25927063902342073241E-06
   -0.26489876827938113933E-06
   -0.26603017055904443366E-06
    0.26849816773945390999E-06
   -0.28108544286162649838E-06
    0.25099752180542149768E-05
    0.25010779246490724931E-05
   -0.27642836283473533415E-06
    0.22417249107935379021E-06
   -0.27034522901573992358E-06
   -0.26995737682229003025E-06
    0.22556014842686725357E-06
   -0.28078922053249815911E-06
   -0.28177835263501443646E-06
    0.27711041778597960824E-06
   -0.26077002376713709636E-06
   -0.26217589938994181688E-06
    0.28914949789860448893E-06
   -0.28128240016712623004E-06
    0.24954149999404930321E-05
    0.24837691425567682261E-05
   -0.27653141887263087582E-06
    0.23022747525503779888E-06
   -0.27044659413184128301E-06
   -0.26984822197287695287E-06
    0.23070813021870708208E-06
   -0.28226633589764464028E-06
   -0.28170543503798821998E-06
    0.25754773617534023357E-06
   -0.26306340924096261516E-06
   -0.26551394301359213533E-06
    0.27769765659018404876E-06
   -0.27989268177051335190E-06
    0.25108735136859610776E-05
    0.24921752345786732050E-05
   -0.27223248794021823651E-06
    0.21863899800904059035E-06
   -0.27081272678394123803E-06
   -0.26961148280476792831E-06
    0.21999136235040028913E-06
   -0.28279367526967829343E-06
   -0.28211618198665870986E-06
    0.27404423833057340631E-06
   -0.25643823775839438628E-06
   -0.26071819201145371254E-06
    0.30998960011212917930E-06
   -0.27849175786479673216E-06
    0.24971585549069941952E-05
    0.24627881593044218259E-05
   -0.28085128905496814440E-06
    0.24039623706771934797E-06
   -0.27025410752423938175E-06
   -0.27009418647184112880E-06
    0.23991890318426803203E-06
   -0.28164253964569128149E-06
   -0.28145256775359813584E-06
    0.24634755742265552862E-06
   -0.26847089542139945901E-06
    0.48777846558816721926E-06
    0.24758949918624395468E-06
    0.45874657674501727400E-06
    0.25217922340525170307E-05
    0.25179235630351765285E-05
   -0.27836556234647635741E-06
    0.23601946624330440431E-06
   -0.27037640560461989849E-06
   -0.26994995631796251440E-06
    0.23554909315827435998E-06
   -0.28198465592303222341E-06
   -0.28156653760366358374E-06
    0.24759210218134584697E-06
   -0.26617473436179082771E-06
   -0.26802052875181712337E-06
    0.26205105654970163176E-06
   -0.28030693410633804689E-06
    0.25192509985706038278E-05
    0.25055330942645948453E-05
   -0.28050790886920800181E-06
    0.24055716428000898924E-06
   -0.27030633682955382664E-06
   -0.27009458447083608565E-06
    0.23979670495400963319E-06
   -0.28168779734333043771E-06
   -0.28147667079793610573E-06
    0.24380246538931878326E-06
   -0.26904135590223447900E-06
    0.48786685823447669088E-06
    0.24754758331067599870E-06
    0.45920906358463747578E-06
    0.25236481708275438855E-05
    0.25176727431857801224E-05
   -0.27774212164187697690E-06
    0.23608229107316411800E-06
   -0.27046053816153706503E-06
   -0.26993032119300305675E-06
    0.23507682429127314179E-06
   -0.28207780776807092893E-06
   -0.28160655806190058517E-06
    0.24350871310318976704E-06
   -0.26600447457383793151E-06
   -0.26845182571473275476E-06
    0.26331659097373157600E-06
   -0.27964946472055770056E-06
    0.25219305316158139681E-05
    0.25042685892694295147E-05
   -0.27482932801858684510E-06
    0.22900624243676188225E-06
   -0.27064813666147510009E-06
   -0.26974250527293054579E-06
    0.22839480624587250107E-06
   -0.28253595731417652329E-06
   -0.28182694232574706143E-06
    0.25157352549008801974E-06
   -0.26178365528358200116E-06
   -0.26565727406600146480E-06
    0.28440081713480929509E-06
   -0.27846027364432192661E-06
    0.25144438751950225956E-05
    0.24857709065862159465E-05
   -0.26885922210827275102E-06
    0.21652171127625957941E-06
   -0.27122220412819517135E-06
   -0.26927216900442199671E-06
    0.21537958917628368135E-06
   -0.28330405020071184486E-06
   -0.28239516933916134860E-06
    0.25969853493516297198E-06
   -0.25378707551211212508E-06
   -0.26100689845756000138E-06
    0.32372929889497410775E-06
   -0.27526217747618514137E-06