# vtk DataFile Version 3.0
LAPLACIEN  2D
ASCII
DATASET UNSTRUCTURED_GRID
 POINTS        1857  float
   3.1250000000000000E-002  0.93750000000000000        0.0000000000000000     
   6.2500000000000000E-002  0.93750000000000000        0.0000000000000000     
   6.2500000000000000E-002  0.96875000000000000        0.0000000000000000     
   1.8749999999999999E-002  0.95625000000000004        0.0000000000000000     
   4.0625000000000001E-002  0.95937499999999998        0.0000000000000000     
   4.3749999999999997E-002  0.98124999999999996        0.0000000000000000     
   2.1874999999999999E-002  0.97812500000000002        0.0000000000000000     
   9.3750000000000000E-002  0.93750000000000000        0.0000000000000000     
  0.12500000000000000       0.93750000000000000        0.0000000000000000     
  0.12500000000000000       0.96875000000000000        0.0000000000000000     
   8.1250000000000003E-002  0.95625000000000004        0.0000000000000000     
  0.10312499999999999       0.95937499999999998        0.0000000000000000     
  0.10625000000000000       0.98124999999999996        0.0000000000000000     
   8.4375000000000006E-002  0.97812500000000002        0.0000000000000000     
   3.1250000000000000E-002  0.87500000000000000        0.0000000000000000     
   6.2500000000000000E-002  0.87500000000000000        0.0000000000000000     
   6.2500000000000000E-002  0.90625000000000000        0.0000000000000000     
   1.8749999999999999E-002  0.89375000000000004        0.0000000000000000     
   4.0625000000000001E-002  0.89687499999999998        0.0000000000000000     
   4.3749999999999997E-002  0.91874999999999996        0.0000000000000000     
   2.1874999999999999E-002  0.91562500000000002        0.0000000000000000     
   9.3750000000000000E-002  0.87500000000000000        0.0000000000000000     
  0.12500000000000000       0.87500000000000000        0.0000000000000000     
  0.12500000000000000       0.90625000000000000        0.0000000000000000     
   8.1250000000000003E-002  0.89375000000000004        0.0000000000000000     
  0.10312499999999999       0.89687499999999998        0.0000000000000000     
  0.10625000000000000       0.91874999999999996        0.0000000000000000     
   8.4375000000000006E-002  0.91562500000000002        0.0000000000000000     
  0.15625000000000000       0.93750000000000000        0.0000000000000000     
  0.18750000000000000       0.93750000000000000        0.0000000000000000     
  0.18750000000000000       0.96875000000000000        0.0000000000000000     
  0.14374999999999999       0.95625000000000004        0.0000000000000000     
  0.16562499999999999       0.95937499999999998        0.0000000000000000     
  0.16875000000000001       0.98124999999999996        0.0000000000000000     
  0.14687500000000001       0.97812500000000002        0.0000000000000000     
  0.21875000000000000       0.93750000000000000        0.0000000000000000     
  0.25000000000000000       0.93750000000000000        0.0000000000000000     
  0.25000000000000000       0.96875000000000000        0.0000000000000000     
  0.20624999999999999       0.95625000000000004        0.0000000000000000     
  0.22812499999999999       0.95937499999999998        0.0000000000000000     
  0.23125000000000001       0.98124999999999996        0.0000000000000000     
  0.20937500000000001       0.97812500000000002        0.0000000000000000     
  0.15625000000000000       0.87500000000000000        0.0000000000000000     
  0.18750000000000000       0.87500000000000000        0.0000000000000000     
  0.18750000000000000       0.90625000000000000        0.0000000000000000     
  0.14374999999999999       0.89375000000000004        0.0000000000000000     
  0.16562499999999999       0.89687499999999998        0.0000000000000000     
  0.16875000000000001       0.91874999999999996        0.0000000000000000     
  0.14687500000000001       0.91562500000000002        0.0000000000000000     
  0.21875000000000000       0.87500000000000000        0.0000000000000000     
  0.25000000000000000       0.87500000000000000        0.0000000000000000     
  0.25000000000000000       0.90625000000000000        0.0000000000000000     
  0.20624999999999999       0.89375000000000004        0.0000000000000000     
  0.22812499999999999       0.89687499999999998        0.0000000000000000     
  0.23125000000000001       0.91874999999999996        0.0000000000000000     
  0.20937500000000001       0.91562500000000002        0.0000000000000000     
   3.1250000000000000E-002  0.81250000000000000        0.0000000000000000     
   6.2500000000000000E-002  0.81250000000000000        0.0000000000000000     
   6.2500000000000000E-002  0.84375000000000000        0.0000000000000000     
   1.8749999999999999E-002  0.83125000000000004        0.0000000000000000     
   4.0625000000000001E-002  0.83437499999999998        0.0000000000000000     
   4.3749999999999997E-002  0.85624999999999996        0.0000000000000000     
   2.1874999999999999E-002  0.85312500000000002        0.0000000000000000     
   9.3750000000000000E-002  0.81250000000000000        0.0000000000000000     
  0.12500000000000000       0.81250000000000000        0.0000000000000000     
  0.12500000000000000       0.84375000000000000        0.0000000000000000     
   8.1250000000000003E-002  0.83125000000000004        0.0000000000000000     
  0.10312499999999999       0.83437499999999998        0.0000000000000000     
  0.10625000000000000       0.85624999999999996        0.0000000000000000     
   8.4375000000000006E-002  0.85312500000000002        0.0000000000000000     
   3.1250000000000000E-002  0.75000000000000000        0.0000000000000000     
   6.2500000000000000E-002  0.75000000000000000        0.0000000000000000     
   6.2500000000000000E-002  0.78125000000000000        0.0000000000000000     
   1.8749999999999999E-002  0.76875000000000004        0.0000000000000000     
   4.0625000000000001E-002  0.77187499999999998        0.0000000000000000     
   4.3749999999999997E-002  0.79374999999999996        0.0000000000000000     
   2.1874999999999999E-002  0.79062500000000002        0.0000000000000000     
   9.3750000000000000E-002  0.75000000000000000        0.0000000000000000     
  0.12500000000000000       0.75000000000000000        0.0000000000000000     
  0.12500000000000000       0.78125000000000000        0.0000000000000000     
   8.1250000000000003E-002  0.76875000000000004        0.0000000000000000     
  0.10312499999999999       0.77187499999999998        0.0000000000000000     
  0.10625000000000000       0.79374999999999996        0.0000000000000000     
   8.4375000000000006E-002  0.79062500000000002        0.0000000000000000     
  0.15625000000000000       0.81250000000000000        0.0000000000000000     
  0.18750000000000000       0.81250000000000000        0.0000000000000000     
  0.18750000000000000       0.84375000000000000        0.0000000000000000     
  0.14374999999999999       0.83125000000000004        0.0000000000000000     
  0.16562499999999999       0.83437499999999998        0.0000000000000000     
  0.16875000000000001       0.85624999999999996        0.0000000000000000     
  0.14687500000000001       0.85312500000000002        0.0000000000000000     
  0.21875000000000000       0.81250000000000000        0.0000000000000000     
  0.25000000000000000       0.81250000000000000        0.0000000000000000     
  0.25000000000000000       0.84375000000000000        0.0000000000000000     
  0.20624999999999999       0.83125000000000004        0.0000000000000000     
  0.22812499999999999       0.83437499999999998        0.0000000000000000     
  0.23125000000000001       0.85624999999999996        0.0000000000000000     
  0.20937500000000001       0.85312500000000002        0.0000000000000000     
  0.15625000000000000       0.75000000000000000        0.0000000000000000     
  0.18750000000000000       0.75000000000000000        0.0000000000000000     
  0.18750000000000000       0.78125000000000000        0.0000000000000000     
  0.14374999999999999       0.76875000000000004        0.0000000000000000     
  0.16562499999999999       0.77187499999999998        0.0000000000000000     
  0.16875000000000001       0.79374999999999996        0.0000000000000000     
  0.14687500000000001       0.79062500000000002        0.0000000000000000     
  0.21875000000000000       0.75000000000000000        0.0000000000000000     
  0.25000000000000000       0.75000000000000000        0.0000000000000000     
  0.25000000000000000       0.78125000000000000        0.0000000000000000     
  0.20624999999999999       0.76875000000000004        0.0000000000000000     
  0.22812499999999999       0.77187499999999998        0.0000000000000000     
  0.23125000000000001       0.79374999999999996        0.0000000000000000     
  0.20937500000000001       0.79062500000000002        0.0000000000000000     
  0.28125000000000000       0.93750000000000000        0.0000000000000000     
  0.31250000000000000       0.93750000000000000        0.0000000000000000     
  0.31250000000000000       0.96875000000000000        0.0000000000000000     
  0.26874999999999999       0.95625000000000004        0.0000000000000000     
  0.29062500000000002       0.95937499999999998        0.0000000000000000     
  0.29375000000000001       0.98124999999999996        0.0000000000000000     
  0.27187499999999998       0.97812500000000002        0.0000000000000000     
  0.34375000000000000       0.93750000000000000        0.0000000000000000     
  0.37500000000000000       0.93750000000000000        0.0000000000000000     
  0.37500000000000000       0.96875000000000000        0.0000000000000000     
  0.33124999999999999       0.95625000000000004        0.0000000000000000     
  0.35312500000000002       0.95937499999999998        0.0000000000000000     
  0.35625000000000001       0.98124999999999996        0.0000000000000000     
[...]
 CELL_DATA        3584
 SCALARS Tumor_cells float
 LOOKUP_TABLE default
   -0.43373552427119383135E-06
    0.42750707914879725864E-06
   -0.39829660306147746487E-06
   -0.39829656435222561771E-06
    0.42750704526615249135E-06
   -0.43373549324991826297E-06
    0.78228053465521166158E-06
    0.43104411449435772506E-06
    0.83369091632688582701E-06
    0.83369090220325009439E-06
    0.43104409210953083086E-06
    0.78228050919492137362E-06
    0.44245218568980398214E-05
    0.44245219770475966291E-05
   -0.43312717769369853472E-06
    0.42621752367394258719E-06
   -0.39833387970294600868E-06
   -0.39832401716195470722E-06
    0.42625479176135292808E-06
   -0.43378855245047987184E-06
    0.78127453583240065851E-06
    0.43271908705168303519E-06
    0.83338688231675145678E-06
   -0.39634319103133428536E-06
    0.43603360397097505769E-06
   -0.43367985412563245882E-06
    0.44231258659588126733E-05
    0.44203442044948515751E-05
   -0.43378859228686940925E-06
    0.42625478961607824710E-06
   -0.39832400277574516663E-06
   -0.39833382935635196257E-06
    0.42621758258065837452E-06
   -0.43312710690646930069E-06
   -0.43367986553743583018E-06
    0.43603351979233317506E-06
   -0.39634319498239612431E-06
    0.83338689884056547737E-06
    0.43271908837756636566E-06
    0.78127451388008398083E-06
    0.44203438088909409559E-05
    0.44231256668818051157E-05
   -0.43330837791528431679E-06
    0.42456304411236332987E-06
   -0.39837250463245839590E-06
   -0.39837251102810184280E-06
    0.42456305943091172344E-06
   -0.43330831206525507233E-06
   -0.43378427903647532453E-06
    0.43869015367969665713E-06
   -0.39633861517420213858E-06
   -0.39633865633254472064E-06
    0.43869031182282065207E-06
   -0.43378424874096844911E-06
    0.44170851987520292159E-05
    0.44170852994341397053E-05
   -0.43269188683854764019E-06
    0.42477752571695223587E-06
   -0.39839796754797478769E-06
   -0.39838872498556750135E-06
    0.42506766421809068530E-06
   -0.43386497421525429838E-06
    0.78039659488431277928E-06
    0.43495795194997339449E-06
    0.83316634783836803740E-06
   -0.39488601169319603433E-06
    0.44100612330061773161E-06
   -0.43349074092417635069E-06
    0.44208855790847089991E-05
    0.44167383760378469947E-05
   -0.43266713976611193955E-06
    0.42349468118919621950E-06
   -0.39848200682817066463E-06
   -0.39848766275474945474E-06
    0.42413752428137561308E-06
   -0.43395791163922653795E-06
    0.77980828192851932071E-06
    0.43763347767096856817E-06
    0.83305788990980850633E-06
   -0.39367561964058635330E-06
    0.44511048217656761261E-06
   -0.43362948700995813397E-06
    0.44177861594138159926E-05
    0.44143448880978886502E-05
   -0.43284697676508034270E-06
    0.42190785228313604985E-06
   -0.39845646108521427663E-06
   -0.39846575534885909624E-06
    0.42209708485965634347E-06
   -0.43295498217417532103E-06
   -0.43386215014158204584E-06
    0.44453520661624707746E-06
   -0.39510053420167157232E-06
   -0.39515111639695591566E-06
    0.44638327048980146801E-06
   -0.43385562741225132010E-06
    0.44109562383967752843E-05
    0.44111535200444346738E-05
   -0.43312245201172352228E-06
    0.41908899116617285120E-06
   -0.39856903249957668122E-06
   -0.39861525888951112922E-06
    0.41888550036901789308E-06
   -0.43189509776222663047E-06
   -0.43396377545858499928E-06
    0.45406416421621516008E-06
   -0.39385689325277994972E-06
   -0.39348264423719506905E-06
    0.45277912923216238587E-06
   -0.43397732463112017886E-06
    0.44015273578283899060E-05
    0.44062704264116738268E-05
   -0.43386502329367696861E-06
    0.42506760254380496299E-06
   -0.39838874914116415269E-06
   -0.39839788083539720918E-06
    0.42477752228617683782E-06
   -0.43269184486764942232E-06
   -0.43349072874019614528E-06
    0.44100604644231044720E-06
   -0.39488603382196238041E-06
    0.83316631343909542921E-06
    0.43495794739565564342E-06
    0.78039661517327962409E-06
    0.44167382421801537612E-05
    0.44208856658647159059E-05
   -0.43295506544725004458E-06
    0.42209704325244749749E-06
   -0.39846577108420058648E-06
   -0.39845641278117279076E-06
    0.42190786375428630820E-06
   -0.43284689985508991364E-06
   -0.43385565931881512589E-06
    0.44638310723713698367E-06
   -0.39515110175755986269E-06
   -0.39510054782102057526E-06
    0.44453529824333443284E-06
   -0.43386214072929433771E-06
    0.44111537126590424769E-05
    0.44109566564553226591E-05
   -0.43395792171570089092E-06
    0.42413755220276698080E-06
   -0.39848769415187577643E-06
   -0.39848197624499022450E-06
    0.42349466498298779039E-06
   -0.43266707531532601388E-06
   -0.43362951662411705351E-06
    0.44511041260412010313E-06
   -0.39367559873536259353E-06
    0.83305789193066278238E-06
    0.43763343664811240003E-06
    0.77980825846267260975E-06
    0.44143447677357087851E-05
    0.44177862283679162687E-05
   -0.43189517274779827861E-06
    0.41888540393783669359E-06
   -0.39861526189853050574E-06
   -0.39856900172997964187E-06
    0.41908899551673762090E-06
   -0.43312238299656492918E-06
   -0.43397734539551158214E-06
    0.45277901181406046358E-06
   -0.39348261189517559554E-06
   -0.39385690868483869916E-06
    0.45406423844445163253E-06
   -0.43396378874497620327E-06
    0.44062706379391136441E-05
    0.44015277443934772668E-05
   -0.43202167280719900299E-06
    0.41720698556587500823E-06
   -0.39860599407696974567E-06
   -0.39860596139552394729E-06
    0.41720692908813996427E-06
   -0.43202163728208477085E-06
   -0.43397313410643392565E-06
    0.45805685248617634726E-06
   -0.39288408974646839614E-06
   -0.39288411856890127884E-06
    0.45805693710946203456E-06
   -0.43397313450648425145E-06
    0.43998515283167915254E-05
    0.43998516436840994157E-05
   -0.43216689454346835012E-06
    0.41120978694210223665E-06
   -0.39880649600347463875E-06
   -0.39886777472466807561E-06
    0.41039288300839593617E-06
   -0.42970210884847048127E-06
   -0.43412405235823914518E-06
    0.47841778855665744157E-06
   -0.39020077521402610689E-06
   -0.38940989350101212665E-06
    0.47122449284482695200E-06
   -0.43417676030162873719E-06
    0.43806890214721091949E-05
    0.43888736199273873008E-05
   -0.42970211121567621182E-06
    0.41039287527353288975E-06
   -0.39886781550130875958E-06
   -0.39880646716307946949E-06
    0.41120981038728160839E-06
   -0.43216685241528929590E-06
   -0.43417677420821291235E-06
    0.47122443269615784079E-06
   -0.38940985484988161568E-06
   -0.39020077323879651939E-06
    0.47841790182991555070E-06
   -0.43412405325268132058E-06
    0.43888735200513252224E-05
    0.43806891266062375606E-05
   -0.42833825088978443462E-06
    0.39795361224352325602E-06
   -0.39927971716377381213E-06
   -0.39927967072607402846E-06
    0.39795364551712142338E-06
   -0.42833817422180397115E-06
   -0.43443124448196494241E-06
    0.50759320849035663550E-06
   -0.38372904721082898173E-06
   -0.38372903045669855009E-06
    0.50759331522282749061E-06
   -0.43443121734983363393E-06
    0.43551750070768723748E-05
    0.43551751023143516411E-05
   -0.43320346808525621697E-06
    0.42269032666405313109E-06
   -0.39857441732286644365E-06
   -0.39860934119092089437E-06
    0.42369988911452254361E-06
   -0.43403334511531812300E-06
    0.77970516912464093497E-06
    0.44037529909943777398E-06
    0.83310841616335014327E-06
   -0.39298888018529432111E-06
    0.44704767805784797337E-06
   -0.43397191508000212872E-06
    0.44141346447255952156E-05
    0.44140004577547875346E-05
   -0.43419323321368949885E-06
    0.42250361338092623597E-06
   -0.39865273763821858856E-06
   -0.39873540702914311887E-06
    0.42303598351667024044E-06
   -0.43334879066022809331E-06
    0.78020566492114935306E-06
    0.44259117800793397856E-06
    0.83334494142814455550E-06
   -0.39310595904424218176E-06
    0.44532736394115386647E-06
   -0.43408620906063453971E-06
    0.44106675893782747803E-05
    0.44162425836337222619E-05
   -0.43427580650220189189E-06
    0.41652317558246130927E-06
   -0.39868381161242840649E-06
   -0.39881007113429543448E-06
    0.41543611279901210617E-06
   -0.43010651459981313204E-06
   -0.43407277491747112119E-06
    0.46668877941508497195E-06
   -0.39286711809161002577E-06
   -0.39146725493132393773E-06
    0.45568040215716054824E-06
   -0.43414845410289196078E-06
    0.43894355088494507104E-05
    0.44041635990342454336E-05
   -0.43447027066292914380E-06
    0.41268141751460180944E-06
   -0.39875271437571373786E-06
   -0.39901711568917295122E-06
    0.41264579425666058674E-06
   -0.42790095086735386840E-06
   -0.43281833159612041510E-06
    0.47836002336284136688E-06
   -0.39248067960765900708E-06
   -0.38952477283790845263E-06
    0.45292135802149569569E-06
   -0.43433208413986693883E-06
    0.43771730617915639351E-05
    0.44062893149505611765E-05
   -0.43430853847137062546E-06
    0.42157631563109361721E-06
   -0.39870339423601966255E-06
   -0.39884188695818479511E-06
    0.42290727318122362618E-06
   -0.43249134596542691009E-06
    0.78125342027473910958E-06
    0.44372003249518950561E-06
    0.83374329061019043500E-06
   -0.39412468300567848767E-06
    0.44021721546466323271E-06
   -0.43418415590435163879E-06
    0.44082540118658022861E-05
    0.44208404208672403684E-05
   -0.43438873260365271409E-06
    0.42119662608700185377E-06
   -0.39871931296084035222E-06
   -0.39890762891332734557E-06
    0.42333811400263720265E-06
   -0.43162864069637791795E-06
    0.78255941698805693170E-06
    0.44360727678874803283E-06
    0.83400397614109567830E-06
   -0.39563198864689966997E-06
    0.43271181775812195187E-06
   -0.43425050706829266687E-06
    0.44074408272802166183E-05
    0.44268798857915104725E-05
   -0.43465358480741411470E-06
    0.40978112766178559025E-06
   -0.39876692269812171776E-06
   -0.39919053272951420712E-06
    0.41123538454607812375E-06
   -0.42579621720551015416E-06
   -0.43101201879222341152E-06
    0.48690170151330660019E-06
   -0.39288805199752602260E-06
   -0.38819621051327042549E-06
    0.44448598697952592297E-06
   -0.43449711617770910067E-06
    0.43680276240739000069E-05
    0.44124515758401583129E-05
   -0.43480104773742464910E-06
    0.40842511735913919726E-06
   -0.39873861764850514828E-06
   -0.39929513013782851113E-06
    0.41140212567173283196E-06
   -0.42421254418101848652E-06
   -0.42919856445155139543E-06
    0.49070708121833563689E-06
   -0.39400347815214694111E-06
   -0.38779415677503995923E-06
    0.43257405439536417242E-06
   -0.43460785185496952538E-06
    0.43639340674265029703E-05
    0.44211011749987011118E-05
   -0.43452109122554702284E-06
    0.40562044857098214266E-06
   -0.39902617297967674939E-06
   -0.39924336124708214075E-06
    0.40241046912788987383E-06
   -0.42564714604852315583E-06
   -0.43312503031256461905E-06
    0.50596004974632510201E-06
   -0.38760696876028912464E-06
   -0.38474422650395984767E-06
    0.47890824305125758739E-06
   -0.43451073765302880335E-06
    0.43535333075472761659E-05
    0.43823441122484892772E-05
   -0.43475298559203449957E-06
    0.39689274866899796888E-06
   -0.39903845580180002362E-06
   -0.39965900652717637976E-06
    0.39584282081466150714E-06
   -0.42070837268763514770E-06
   -0.42976369225043217686E-06
    0.53327925662612301823E-06
   -0.38611227366841926295E-06
   -0.37996203242978809901E-06
    0.47412179591875012793E-06
   -0.43488249119923482529E-06
    0.43246769395586865845E-05
    0.43850969860253411384E-05
   -0.43055968581103307518E-06
    0.38332556412512845247E-06
   -0.39981293248501278578E-06
   -0.40009033331152195752E-06
    0.37970476759488561147E-06
   -0.41987506295407525958E-06
   -0.43354928127872058546E-06
    0.56700649047576026723E-06
   -0.37699743867014496396E-06
   -0.37349283775634108892E-06
    0.53157818664150388027E-06
   -0.43503866829443357131E-06
    0.42970870478331848401E-05
    0.43348063916503836411E-05
   -0.43396993891296901038E-06
    0.36822021573434366753E-06
   -0.39938530499081095695E-06
   -0.40103054558232980773E-06
    0.36502038441263415053E-06
   -0.40903820972114577589E-06
   -0.42541946545290028341E-06
    0.62880391811247553706E-06
   -0.37251534593738569195E-06
   -0.36201852182000316324E-06
    0.52276838199421304014E-06
   -0.43598271588526427456E-06
    0.42288950595531093837E-05
    0.43396421916988057554E-05
   -0.43501855207398883286E-06
    0.39052218985358160238E-06
   -0.39888257924014757229E-06
   -0.39999632166041716653E-06
    0.39259909168523133038E-06
   -0.41634304763470579185E-06
   -0.42571246717611717551E-06
    0.55324646363041468854E-06
   -0.38637806732814874173E-06
   -0.37673427728758469511E-06
    0.45691499901219722998E-06
   -0.43522391668803043016E-06
    0.43039411911469530338E-05
    0.43964163662498478553E-05
   -0.43532466848065922421E-06
    0.38768828231902978573E-06
   -0.39868262106297758675E-06
   -0.40018650221784237070E-06
    0.39269174786251685729E-06
   -0.41336014869856876880E-06
   -0.42207471148487226776E-06
    0.56213102123613792580E-06
   -0.38818365421016443109E-06
   -0.37576543142625284521E-06
    0.43428945904802264150E-06
   -0.43545080662698708571E-06
    0.42951219533220902933E-05
    0.44119474536807554391E-05
   -0.43413906238591226777E-06
    0.35540844285341580755E-06
   -0.39824714759343407186E-06
   -0.40169094205944669943E-06
    0.35922360721767636825E-06
   -0.40049980725466401011E-06
   -0.41593200787293671761E-06
    0.67019917529684177421E-06
   -0.37283240003892826584E-06
   -0.35546997436697268769E-06
    0.48161343094513353462E-06
   -0.43675828359939261468E-06
    0.41863944842645751428E-05
    0.43645457360403536954E-05
   -0.43480020129230888990E-06
    0.35048658072577006161E-06
   -0.39731566057481815056E-06
   -0.40199511133036574553E-06
    0.35958627152633132298E-06
   -0.39515404662992718037E-06
   -0.40830167095424740610E-06
    0.68711282232643716337E-06
   -0.37648011995877004144E-06
   -0.35445670330710176435E-06
    0.43689838457164185229E-06
   -0.43724393081733769775E-06
    0.41710286877196120302E-05
    0.43938201019402770229E-05
   -0.43403334807248928934E-06
    0.42369993792931441464E-06
   -0.39860940731628920976E-06
   -0.39857430040509137201E-06
    0.42269030747149743285E-06
   -0.43320339854110744298E-06
   -0.43397192845787966728E-06
    0.44704763170430054242E-06
   -0.39298895388205409451E-06
    0.83310842596745559928E-06
    0.44037527294196075519E-06
    0.77970517316828633379E-06
    0.44140003022689152154E-05
    0.44141347437185415902E-05
   -0.43010657244058305975E-06
    0.41543607475747701955E-06
   -0.39881012128345827668E-06
   -0.39868378301534996290E-06
    0.41652316830362063168E-06
   -0.43427575867748592178E-06
   -0.43414848894497910011E-06
    0.45568027707451429604E-06
   -0.39146727434717144398E-06
   -0.39286716848189731356E-06
    0.46668889841695649940E-06
   -0.43407278413323760349E-06
    0.44041637857825901881E-05
    0.43894359307359635906E-05
   -0.43334881761236850040E-06
    0.42303599982056041485E-06
   -0.39873545794571145854E-06
   -0.39865266420339576022E-06
    0.42250357659796738894E-06
   -0.43419313711831001143E-06
   -0.43408624379277992592E-06
    0.44532730392686473240E-06
   -0.39310602281785279467E-06
    0.83334496471008114361E-06
    0.44259117206205179177E-06
    0.78020565044425980033E-06
    0.44162424466681626540E-05
    0.44106676945916363020E-05
   -0.42790098239500674965E-06
    0.41264576582247134347E-06
   -0.39901718281180482442E-06
   -0.39875265387417742415E-06
    0.41268139539915590348E-06
   -0.43447028092156634948E-06
   -0.43433210962119773696E-06
    0.45292121682904516931E-06
   -0.38952473598836063984E-06
   -0.39248075557948352587E-06
    0.47836013899000954215E-06
   -0.43281832977698973536E-06
    0.44062894889913805372E-05
    0.43771734658746521329E-05
   -0.42564714959927494751E-06
    0.40241049026553523916E-06
   -0.39924342407732325531E-06
   -0.39902618711778382816E-06
    0.40562041834661470575E-06
   -0.43452104365313268038E-06
   -0.43451078864133575145E-06
    0.47890818233024026690E-06
   -0.38474425972103471237E-06
   -0.38760699976149557083E-06
    0.50596016873149949249E-06
   -0.43312501851682450611E-06
    0.43823440051086529610E-05
    0.43535334180545554915E-05
   -0.41987507810833917781E-06
    0.37970481048346784767E-06
   -0.40009040841267691584E-06
   -0.39981293902241397266E-06
    0.38332555260168052707E-06
   -0.43055962394269681627E-06
   -0.43503870001736116353E-06
    0.53157810544323593751E-06
   -0.37349286666651546765E-06
   -0.37699749393802589755E-06
    0.56700660283525998517E-06
   -0.43354929134007127105E-06
    0.43348062771355415674E-05
    0.42970871874407621832E-05
   -0.42070839674796981511E-06
    0.39584283052374680713E-06
   -0.39965907234454578077E-06
   -0.39903843017833916159E-06
    0.39689276295631567172E-06
   -0.43475292642249667068E-06
   -0.43488246500871563356E-06
    0.47412174637789087894E-06
   -0.37996207159337920759E-06
   -0.38611231419608731756E-06
    0.53327935858367877901E-06
   -0.42976366518851667039E-06
    0.43850968593424658956E-05
    0.43246770495015539760E-05
   -0.40903822435707778174E-06
    0.36502039692307345343E-06
   -0.40103061382355116761E-06
   -0.39938529679068197703E-06
    0.36822020547485757602E-06
   -0.43396991687038694319E-06
   -0.43598275024346854324E-06
    0.52276833664233770880E-06
   -0.36201854486176350622E-06
   -0.37251538276315162537E-06
    0.62880401910995259229E-06
   -0.42541942230183614233E-06
    0.43396420775535775197E-05
    0.42288951727139404921E-05
   -0.43249136527860539398E-06
    0.42290729701814546576E-06
   -0.39884189889245513487E-06
   -0.39870335093078027848E-06
    0.42157627394806653448E-06
   -0.43430849005839382043E-06
   -0.43418418697571337707E-06
    0.44021715990365331284E-06
   -0.39412473652183032949E-06
    0.83374332051012990649E-06
    0.44372003917338588541E-06
    0.78125343244323084110E-06
    0.44208402928254744035E-05
    0.44082541073907103245E-05
   -0.42579626962276729587E-06
    0.41123532395608176537E-06
   -0.39919059632961520299E-06
   -0.39876692548847191565E-06
    0.40978113538438275256E-06
   -0.43465354108283402355E-06
   -0.43449711942202062447E-06
    0.44448582354528891496E-06
   -0.38819620895412877973E-06
   -0.39288810480734704235E-06
    0.48690181963144694856E-06
   -0.43101200477695040378E-06
    0.44124517751314584299E-05
    0.43680280312579309319E-05
   -0.43162867799760912035E-06
    0.42333810864089657073E-06
   -0.39890769795961434654E-06
   -0.39871926950514626443E-06
    0.42119663456289903269E-06
   -0.43438871049766530742E-06
   -0.43425049014472949364E-06
    0.43271175403798913466E-06
   -0.39563205548792956357E-06
    0.83400398931465341162E-06
    0.44360730119814323080E-06
    0.78255940385070890396E-06
    0.44268797500834000739E-05
    0.44074409132124714469E-05
   -0.42421258985022264133E-06
    0.41140205207760491734E-06
   -0.39929518016706011715E-06
   -0.39873862969912562774E-06
    0.40842508714026932182E-06
   -0.43480099168767655984E-06
   -0.43460785841853508355E-06
    0.43257389560137508449E-06
   -0.38779417849223331388E-06
   -0.39400350181156535036E-06
    0.49070720011702997516E-06
   -0.42919852018737166515E-06
    0.44211013690847305051E-05
    0.43639344524975690547E-05
   -0.41634305656843020800E-06
    0.39259907047373602112E-06
   -0.39999638197545196597E-06
   -0.39888257283069118855E-06
    0.39052218381471685026E-06
   -0.43501848028028789290E-06
   -0.43522391896745406003E-06
    0.45691496434792109982E-06
   -0.37673426330817463884E-06
   -0.38637814586167342587E-06
    0.55324655217637602314E-06
   -0.42571243028334098332E-06
    0.43964162164780038941E-05
    0.43039412920714428481E-05
   -0.40049985436658200865E-06
    0.35922361771800357281E-06
   -0.40169104712583604041E-06
   -0.39824714274221862022E-06
    0.35540844518606778192E-06
   -0.43413902060885753988E-06
   -0.43675828797830138320E-06
    0.48161334054196437174E-06
   -0.35547001339619816576E-06
   -0.37283241708575887333E-06
    0.67019932286865656833E-06
   -0.41593197326761492761E-06