# vtk DataFile Version 3.0
LAPLACIEN  2D
ASCII
DATASET UNSTRUCTURED_GRID
 POINTS        1857  float
   3.1250000000000000E-002  0.93750000000000000        0.0000000000000000     
   6.2500000000000000E-002  0.93750000000000000        0.0000000000000000     
   6.2500000000000000E-002  0.96875000000000000        0.0000000000000000     
   1.8749999999999999E-002  0.95625000000000004        0.0000000000000000     
   4.0625000000000001E-002  0.95937499999999998        0.0000000000000000     
   4.3749999999999997E-002  0.98124999999999996        0.0000000000000000     
   2.1874999999999999E-002  0.97812500000000002        0.0000000000000000     
   9.3750000000000000E-002  0.93750000000000000        0.0000000000000000     
  0.12500000000000000       0.93750000000000000        0.0000000000000000     
  0.12500000000000000       0.96875000000000000        0.0000000000000000     
   8.1250000000000003E-002  0.95625000000000004        0.0000000000000000     
  0.10312499999999999       0.95937499999999998        0.0000000000000000     
  0.10625000000000000       0.98124999999999996        0.0000000000000000     
   8.4375000000000006E-002  0.97812500000000002        0.0000000000000000     
   3.1250000000000000E-002  0.87500000000000000        0.0000000000000000     
   6.2500000000000000E-002  0.87500000000000000        0.0000000000000000     
   6.2500000000000000E-002  0.90625000000000000        0.0000000000000000     
   1.8749999999999999E-002  0.89375000000000004        0.0000000000000000     
   4.0625000000000001E-002  0.89687499999999998        0.0000000000000000     
   4.3749999999999997E-002  0.91874999999999996        0.0000000000000000     
   2.1874999999999999E-002  0.91562500000000002        0.0000000000000000     
   9.3750000000000000E-002  0.87500000000000000        0.0000000000000000     
  0.12500000000000000       0.87500000000000000        0.0000000000000000     
  0.12500000000000000       0.90625000000000000        0.0000000000000000     
   8.1250000000000003E-002  0.89375000000000004        0.0000000000000000     
  0.10312499999999999       0.89687499999999998        0.0000000000000000     
  0.10625000000000000       0.91874999999999996        0.0000000000000000     
   8.4375000000000006E-002  0.91562500000000002        0.0000000000000000     
  0.15625000000000000       0.93750000000000000        0.0000000000000000     
  0.18750000000000000       0.93750000000000000        0.0000000000000000     
  0.18750000000000000       0.96875000000000000        0.0000000000000000     
  0.14374999999999999       0.95625000000000004        0.0000000000000000     
  0.16562499999999999       0.95937499999999998        0.0000000000000000     
  0.16875000000000001       0.98124999999999996        0.0000000000000000     
  0.14687500000000001       0.97812500000000002        0.0000000000000000     
  0.21875000000000000       0.93750000000000000        0.0000000000000000     
  0.25000000000000000       0.93750000000000000        0.0000000000000000     
  0.25000000000000000       0.96875000000000000        0.0000000000000000     
  0.20624999999999999       0.95625000000000004        0.0000000000000000     
  0.22812499999999999       0.95937499999999998        0.0000000000000000     
  0.23125000000000001       0.98124999999999996        0.0000000000000000     
  0.20937500000000001       0.97812500000000002        0.0000000000000000     
  0.15625000000000000       0.87500000000000000        0.0000000000000000     
  0.18750000000000000       0.87500000000000000        0.0000000000000000     
  0.18750000000000000       0.90625000000000000        0.0000000000000000     
  0.14374999999999999       0.89375000000000004        0.0000000000000000     
  0.16562499999999999       0.89687499999999998        0.0000000000000000     
  0.16875000000000001       0.91874999999999996        0.0000000000000000     
  0.14687500000000001       0.91562500000000002        0.0000000000000000     
  0.21875000000000000       0.87500000000000000        0.0000000000000000     
  0.25000000000000000       0.87500000000000000        0.0000000000000000     
  0.25000000000000000       0.90625000000000000        0.0000000000000000     
  0.20624999999999999       0.89375000000000004        0.0000000000000000     
  0.22812499999999999       0.89687499999999998        0.0000000000000000     
  0.23125000000000001       0.91874999999999996        0.0000000000000000     
  0.20937500000000001       0.91562500000000002        0.0000000000000000     
   3.1250000000000000E-002  0.81250000000000000        0.0000000000000000     
   6.2500000000000000E-002  0.81250000000000000        0.0000000000000000     
   6.2500000000000000E-002  0.84375000000000000        0.0000000000000000     
   1.8749999999999999E-002  0.83125000000000004        0.0000000000000000     
   4.0625000000000001E-002  0.83437499999999998        0.0000000000000000     
   4.3749999999999997E-002  0.85624999999999996        0.0000000000000000     
   2.1874999999999999E-002  0.85312500000000002        0.0000000000000000     
   9.3750000000000000E-002  0.81250000000000000        0.0000000000000000     
  0.12500000000000000       0.81250000000000000        0.0000000000000000     
  0.12500000000000000       0.84375000000000000        0.0000000000000000     
   8.1250000000000003E-002  0.83125000000000004        0.0000000000000000     
  0.10312499999999999       0.83437499999999998        0.0000000000000000     
  0.10625000000000000       0.85624999999999996        0.0000000000000000     
   8.4375000000000006E-002  0.85312500000000002        0.0000000000000000     
   3.1250000000000000E-002  0.75000000000000000        0.0000000000000000     
   6.2500000000000000E-002  0.75000000000000000        0.0000000000000000     
   6.2500000000000000E-002  0.78125000000000000        0.0000000000000000     
   1.8749999999999999E-002  0.76875000000000004        0.0000000000000000     
   4.0625000000000001E-002  0.77187499999999998        0.0000000000000000     
   4.3749999999999997E-002  0.79374999999999996        0.0000000000000000     
   2.1874999999999999E-002  0.79062500000000002        0.0000000000000000     
   9.3750000000000000E-002  0.75000000000000000        0.0000000000000000     
  0.12500000000000000       0.75000000000000000        0.0000000000000000     
  0.12500000000000000       0.78125000000000000        0.0000000000000000     
   8.1250000000000003E-002  0.76875000000000004        0.0000000000000000     
  0.10312499999999999       0.77187499999999998        0.0000000000000000     
  0.10625000000000000       0.79374999999999996        0.0000000000000000     
   8.4375000000000006E-002  0.79062500000000002        0.0000000000000000     
  0.15625000000000000       0.81250000000000000        0.0000000000000000     
  0.18750000000000000       0.81250000000000000        0.0000000000000000     
  0.18750000000000000       0.84375000000000000        0.0000000000000000     
  0.14374999999999999       0.83125000000000004        0.0000000000000000     
  0.16562499999999999       0.83437499999999998        0.0000000000000000     
  0.16875000000000001       0.85624999999999996        0.0000000000000000     
  0.14687500000000001       0.85312500000000002        0.0000000000000000     
  0.21875000000000000       0.81250000000000000        0.0000000000000000     
  0.25000000000000000       0.81250000000000000        0.0000000000000000     
  0.25000000000000000       0.84375000000000000        0.0000000000000000     
  0.20624999999999999       0.83125000000000004        0.0000000000000000     
  0.22812499999999999       0.83437499999999998        0.0000000000000000     
  0.23125000000000001       0.85624999999999996        0.0000000000000000     
  0.20937500000000001       0.85312500000000002        0.0000000000000000     
  0.15625000000000000       0.75000000000000000        0.0000000000000000     
  0.18750000000000000       0.75000000000000000        0.0000000000000000     
  0.18750000000000000       0.78125000000000000        0.0000000000000000     
  0.14374999999999999       0.76875000000000004        0.0000000000000000     
  0.16562499999999999       0.77187499999999998        0.0000000000000000     
  0.16875000000000001       0.79374999999999996        0.0000000000000000     
  0.14687500000000001       0.79062500000000002        0.0000000000000000     
  0.21875000000000000       0.75000000000000000        0.0000000000000000     
  0.25000000000000000       0.75000000000000000        0.0000000000000000     
  0.25000000000000000       0.78125000000000000        0.0000000000000000     
  0.20624999999999999       0.76875000000000004        0.0000000000000000     
  0.22812499999999999       0.77187499999999998        0.0000000000000000     
  0.23125000000000001       0.79374999999999996        0.0000000000000000     
  0.20937500000000001       0.79062500000000002        0.0000000000000000     
  0.28125000000000000       0.93750000000000000        0.0000000000000000     
  0.31250000000000000       0.93750000000000000        0.0000000000000000     
  0.31250000000000000       0.96875000000000000        0.0000000000000000     
  0.26874999999999999       0.95625000000000004        0.0000000000000000     
  0.29062500000000002       0.95937499999999998        0.0000000000000000     
  0.29375000000000001       0.98124999999999996        0.0000000000000000     
  0.27187499999999998       0.97812500000000002        0.0000000000000000     
  0.34375000000000000       0.93750000000000000        0.0000000000000000     
  0.37500000000000000       0.93750000000000000        0.0000000000000000     
  0.37500000000000000       0.96875000000000000        0.0000000000000000     
  0.33124999999999999       0.95625000000000004        0.0000000000000000     
  0.35312500000000002       0.95937499999999998        0.0000000000000000     
  0.35625000000000001       0.98124999999999996        0.0000000000000000     
[...]
 CELL_DATA        3584
 SCALARS Tumor_cells float
 LOOKUP_TABLE default
   -0.15166974550902459094E-06
    0.11818541765313003236E-06
   -0.15296421061566331678E-06
   -0.15296421032573762381E-06
    0.11818540596333206237E-06
   -0.15166973586303419285E-06
    0.22865247944935451764E-06
    0.11847902379992100357E-06
    0.24257683063953966127E-06
    0.24257681211080627782E-06
    0.11847900790413643829E-06
    0.22865247460785643973E-06
    0.11963056189155027855E-05
    0.11963056438272381255E-05
   -0.15161239740859194381E-06
    0.11805670734812680131E-06
   -0.15296286852707293727E-06
   -0.15295465578752287542E-06
    0.11806433654085583416E-06
   -0.15168654428546798410E-06
    0.22856749616362250302E-06
    0.11860400441578176158E-06
    0.24255410267065359786E-06
   -0.15276786136776352813E-06
    0.11885312875645599522E-06
   -0.15165114948408901436E-06
    0.11962324726820060798E-05
    0.11960870426916693985E-05
   -0.15168654757865659121E-06
    0.11806434223939776967E-06
   -0.15295463176826750601E-06
   -0.15296284668273877256E-06
    0.11805671207114777362E-06
   -0.15161238952249349400E-06
   -0.15165115311747879620E-06
    0.11885312753067962420E-06
   -0.15276785005384249007E-06
    0.24255410762070964175E-06
    0.11860399567406090780E-06
    0.22856749159947477577E-06
    0.11960869542611961358E-05
    0.11962323879146739695E-05
   -0.15164542487378471785E-06
    0.11789254014329948010E-06
   -0.15294785160265932595E-06
   -0.15294785863185882696E-06
    0.11789254090385388392E-06
   -0.15164541119621241712E-06
   -0.15166081340024324472E-06
    0.11903899113413263541E-06
   -0.15275951998556796668E-06
   -0.15275952478468009240E-06
    0.11903902359807174171E-06
   -0.15166080211378391478E-06
    0.11959161122977137201E-05
    0.11959161106356813411E-05
   -0.15157719293431642641E-06
    0.11791404772338694684E-06
   -0.15295947530333106396E-06
   -0.15295114332507572742E-06
    0.11794821646298069928E-06
   -0.15170343474206317626E-06
    0.22849331349774268929E-06
    0.11877273700461673958E-06
    0.24253794091232054458E-06
   -0.15261229380491933708E-06
    0.11922647455707677159E-06
   -0.15163213896533810696E-06
    0.11961146181962928491E-05
    0.11958976853702326235E-05
   -0.15158800662539620439E-06
    0.11778711517870931550E-06
   -0.15295306969531655358E-06
   -0.15295580498187801200E-06
    0.11785521631083763433E-06
   -0.15171736425527834444E-06
    0.22844350131298970572E-06
    0.11897561854144336193E-06
    0.24253089092800854365E-06
   -0.15248242975610551837E-06
    0.11953710357341514987E-06
   -0.15164482411570292958E-06
    0.11959514235830239337E-05
    0.11957710848892731912E-05
   -0.15161778504211441439E-06
    0.11762853996487236539E-06
   -0.15293277846415703409E-06
   -0.15293989221674098456E-06
    0.11764742125558160369E-06
   -0.15162352287296297646E-06
   -0.15166753888898058330E-06
    0.11947192035555031205E-06
   -0.15262282896107694809E-06
   -0.15262878869231735845E-06
    0.11961757395103799768E-06
   -0.15166703956502035518E-06
    0.11955940834472313468E-05
    0.11956045092974921426E-05
   -0.15167801004349598879E-06
    0.11734809670010301614E-06
   -0.15290635960403574968E-06
   -0.15294376503979288403E-06
    0.11732743285678732019E-06
   -0.15152604553881709402E-06
   -0.15167655943212881737E-06
    0.12019475846623609815E-06
   -0.15248746499912527986E-06
   -0.15244551539392934968E-06
    0.12008777209378206170E-06
   -0.15167745740128183790E-06
    0.11950979944155631819E-05
    0.11953472041292819394E-05
   -0.15170342654783195439E-06
    0.11794820013098679225E-06
   -0.15295115342660888840E-06
   -0.15295945089846023954E-06
    0.11791403237878035227E-06
   -0.15157719539417504118E-06
   -0.15163212513360406282E-06
    0.11922647390245879325E-06
   -0.15261229699055193878E-06
    0.24253792270482774157E-06
    0.11877273362622819850E-06
    0.22849331529057834292E-06
    0.11958976813825467740E-05
    0.11961146291861578222E-05
   -0.15162353899705209072E-06
    0.11764741040525069738E-06
   -0.15293988701410993313E-06
   -0.15293277151133319691E-06
    0.11762852957711973057E-06
   -0.15161776413671722463E-06
   -0.15166705334656584431E-06
    0.11961755286709994751E-06
   -0.15262879509491375470E-06
   -0.15262282534014035051E-06
    0.11947190268732421129E-06
   -0.15166753333398591693E-06
    0.11956045782779830007E-05
    0.11955941832953042802E-05
   -0.15171736841902507424E-06
    0.11785523615685414480E-06
   -0.15295580376583674946E-06
   -0.15295306841247297887E-06
    0.11778708347919411099E-06
   -0.15158800169566143382E-06
   -0.15164482104011189854E-06
    0.11953709725938266570E-06
   -0.15248242687147258604E-06
    0.24253089122578218216E-06
    0.11897560309004256221E-06
    0.22844350792596944549E-06
    0.11957710794313846318E-05
    0.11959514320800103801E-05
   -0.15152607929329579728E-06
    0.11732740686615992337E-06
   -0.15294374330081331258E-06
   -0.15290636116355853380E-06
    0.11734808457149496914E-06
   -0.15167797456620947201E-06
   -0.15167745899468773986E-06
    0.12008776020166010786E-06
   -0.15244550927124997274E-06
   -0.15248745800393637514E-06
    0.12019474988886048108E-06
   -0.15167657240490379624E-06
    0.11953472958449225130E-05
    0.11950980880635539942E-05
   -0.15156141297391867005E-06
    0.11715936899232667453E-06
   -0.15291259807474963693E-06
   -0.15291258886756238077E-06
    0.11715935004648284823E-06
   -0.15156141905887278770E-06
   -0.15167751567136742384E-06
    0.12049180124188498587E-06
   -0.15238077188665887856E-06
   -0.15238077945126332626E-06
    0.12049180662884933251E-06
   -0.15167751851105384984E-06
    0.11950101672803206059E-05
    0.11950101619435734281E-05
   -0.15163830154039826315E-06
    0.11655968437268426425E-06
   -0.15285778737412997902E-06
   -0.15290948210849836702E-06
    0.11647653317548957447E-06
   -0.15134863094883785906E-06
   -0.15169197678936900718E-06
    0.12204788099733904651E-06
   -0.15209425903996049826E-06
   -0.15200351598204296141E-06
    0.12147051132128908885E-06
   -0.15169529000865030007E-06
    0.11940004905840224427E-05
    0.11944321087518545609E-05
   -0.15134862298991220466E-06
    0.11647653924477223264E-06
   -0.15290948203069211747E-06
   -0.15285777391526386167E-06
    0.11655966892052935374E-06
   -0.15163828831043258247E-06
   -0.15169529238377388285E-06
    0.12147052629633393798E-06
   -0.15200350380819771697E-06
   -0.15209425596019957696E-06
    0.12204787700086075677E-06
   -0.15169196976992714043E-06
    0.11944321023988207358E-05
    0.11940005067135696255E-05
   -0.15130991994876276257E-06
    0.11522758445395357452E-06
   -0.15282097141095419724E-06
   -0.15282096511827054322E-06
    0.11522759582651821077E-06
   -0.15130990721145706675E-06
   -0.15172119623703929378E-06
    0.12426141213189360696E-06
   -0.15140999123548243620E-06
   -0.15141000381523571573E-06
    0.12426140698612670955E-06
   -0.15172119494945013757E-06
    0.11926573183447381735E-05
    0.11926573076443928735E-05
   -0.15165948554868651007E-06
    0.11770797335790296450E-06
   -0.15294395765127923828E-06
   -0.15297020911465828708E-06
    0.11780890219463278720E-06
   -0.15172267893053767517E-06
    0.22843481873243766985E-06
    0.11918445618167916063E-06
    0.24253644979288566094E-06
   -0.15240763055388305493E-06
    0.11968232366683339086E-06
   -0.15167685157880901036E-06
    0.11957588331929243635E-05
    0.11957515127743341501E-05
   -0.15177833871255387336E-06
    0.11769199245709637028E-06
   -0.15293429862104779338E-06
   -0.15299344132790533728E-06
    0.11774376690506569925E-06
   -0.15164515700859536552E-06
    0.22847728044587417128E-06
    0.11935402403942171303E-06
    0.24255675876832872534E-06
   -0.15241804583014492329E-06
    0.11953952231756947037E-06
   -0.15168630608753370572E-06
    0.11955758052514040827E-05
    0.11958677218669358579E-05
   -0.15184191703460794715E-06
    0.11709493917207494943E-06
   -0.15286961272128970231E-06
   -0.15296490847876878088E-06
    0.11698287367362071113E-06
   -0.15134575418331716515E-06
   -0.15168656873663770882E-06
    0.12116612764317472069E-06
   -0.15238268377699659406E-06
   -0.15222359626828404486E-06
    0.12028001648473230659E-06
   -0.15169164559002831675E-06
    0.11944605614351427818E-05
    0.11952360184186477371E-05
   -0.15191864795381589148E-06
    0.11673109970201168524E-06
   -0.15283131816910442629E-06
   -0.15300304915123262677E-06
    0.11670368035247433925E-06
   -0.15111163540672993124E-06
   -0.15156562700590627369E-06
    0.12205214126103813252E-06
   -0.15234568157901675476E-06
   -0.15200720150195064631E-06
    0.12002797377519860012E-06
   -0.15170721764972442037E-06
    0.11938128802113525468E-05
    0.11953495421698848980E-05
   -0.15180755874049956531E-06
    0.11761243841128432053E-06
   -0.15292701970018429401E-06
   -0.15302130422773914970E-06
    0.11773181850666818917E-06
   -0.15154480546222977581E-06
    0.22856609606358272758E-06
    0.11944137091840265574E-06
    0.24258969073371057070E-06
   -0.15252432076013807974E-06
    0.11913546255933484118E-06
   -0.15169459001243256873E-06
    0.11954482792765051490E-05
    0.11961080546788705069E-05
   -0.15182609860577624268E-06
    0.11758800401215467972E-06
   -0.15292369027673457146E-06
   -0.15304797267401687189E-06
    0.11777515101301226501E-06
   -0.15144213447540028250E-06
    0.22867752032053268308E-06
    0.11943463976757421369E-06
    0.24260871331259678453E-06
   -0.15268298668181032364E-06
    0.11855019732870802229E-06
   -0.15170021740869102290E-06
    0.11954050316230024300E-05
    0.11964241305259707883E-05
   -0.15198539591337584754E-06
    0.11646626142860144991E-06
   -0.15280306764302281201E-06
   -0.15304909036951528280E-06
    0.11656269196045271065E-06
   -0.15087878271218452180E-06
   -0.15139248292824385709E-06
    0.12269711084022540181E-06
   -0.15239519529328222155E-06
   -0.15185470226879855700E-06
    0.11933595705586476783E-06
   -0.15172118520477309547E-06
    0.11933286724798836635E-05
    0.11956778482800919308E-05
   -0.15202696136088374022E-06
    0.11635510988726180794E-06
   -0.15279012807295359260E-06
   -0.15309246721104106986E-06
    0.11658010100964726664E-06
   -0.15069631330992423227E-06
   -0.15121886199812183815E-06
    0.12298129982405713281E-06
   -0.15251981465435815644E-06
   -0.15180219426903411566E-06
    0.11838363130103002490E-06
   -0.15173051201795670196E-06
    0.11931114457289709227E-05
    0.11961371836610282851E-05
   -0.15198324476095240688E-06
    0.11600120466938159694E-06
   -0.15277095380720929639E-06
   -0.15294365315312651842E-06
    0.11567263024796222566E-06
   -0.15093972489993624783E-06
   -0.15159904171045809231E-06
    0.12416133241220152543E-06
   -0.15182888936752595159E-06
   -0.15149626317803300782E-06
    0.12200885206445143509E-06
   -0.15172222473529273695E-06
    0.11925653747527852773E-05
    0.11940911536344443213E-05
   -0.15214888030750258901E-06
    0.11516690316185978435E-06
   -0.15267553296423549969E-06
   -0.15301967021787839108E-06
    0.11500811808390503015E-06
   -0.15041177421499767253E-06
   -0.15128742308733962775E-06
    0.12624625629102170717E-06
   -0.15169047903829006572E-06
   -0.15096572138689063374E-06
    0.12156136299055490003E-06
   -0.15175339851605110099E-06
    0.11910354048641345496E-05
    0.11942496185090231071E-05
   -0.15176774921261292175E-06
    0.11376393759784488888E-06
   -0.15262743282749550982E-06
   -0.15286812415322539076E-06
    0.11338402216763738093E-06
   -0.15046178323861417864E-06
   -0.15165295654398982480E-06
    0.12886676060852296288E-06
   -0.15075679352656948789E-06
   -0.15033881125469027022E-06
    0.12605959993392961370E-06
   -0.15177232429094628971E-06
    0.11896002695794379093E-05
    0.11915987219875826814E-05
   -0.15253764796267904617E-06
    0.11231441378278611862E-06
   -0.15238932273403574015E-06
   -0.15304790778991146912E-06
    0.11189046247781738657E-06
   -0.14927567515090940661E-06
   -0.15094202659193019912E-06
    0.13361036895205359924E-06
   -0.15038364990175424268E-06
   -0.14909735171770158196E-06
    0.12527135741670758128E-06
   -0.15184717584972645507E-06
    0.11859936036014793015E-05
    0.11919165277934080290E-05
   -0.15228863510888814418E-06
    0.11457830890473496336E-06
   -0.15260953138413151359E-06
   -0.15311003888320311171E-06
    0.11468038731594431452E-06
   -0.14992386716377361551E-06
   -0.15091512449929683037E-06
    0.12776369782816541190E-06
   -0.15173926376727064139E-06
   -0.15058706978896032460E-06
    0.12013496820599637440E-06
   -0.15178159783005472380E-06
    0.11899316704746443730E-05
    0.11948706337314047691E-05
   -0.15237068693702708192E-06
    0.11434167017687216557E-06
   -0.15258049347603134715E-06
   -0.15319026294685758805E-06
    0.11469267519799009247E-06
   -0.14957651615316362874E-06
   -0.15057960324308387588E-06
    0.12842359627508721361E-06
   -0.15194246252039870584E-06
   -0.15044775836482907512E-06
    0.11829690733307557349E-06
   -0.15179963892836921304E-06
    0.11894626991074257029E-05
    0.11957128156342585342E-05
   -0.15282553710038606617E-06
    0.11114218515777680025E-06
   -0.15225365283843669072E-06
   -0.15323574275029826449E-06
    0.11131800333396095289E-06
   -0.14829073707688532596E-06
   -0.15012450255798940869E-06
    0.13673282223413893877E-06
   -0.15049513999991646494E-06
   -0.14829433643758343322E-06
    0.12185626212994978327E-06
   -0.15191036793719774788E-06
    0.11837491833120240642E-05
    0.11933427345061494960E-05
   -0.15297000413497775797E-06
    0.11075420599790985999E-06
   -0.15219818470172161601E-06
   -0.15338131586758402454E-06
    0.11137922999172268302E-06
   -0.14765494470755575383E-06
   -0.14946450892964831635E-06
    0.13791984094052003532E-06
   -0.15090477599613186032E-06
   -0.14807292959979457721E-06
    0.11816536166639851149E-06
   -0.15194563971520732064E-06
    0.11829738541066005410E-05
    0.11949721967898249089E-05
   -0.15172268071658502147E-06
    0.11780891598411280452E-06
   -0.15297022918592916765E-06
   -0.15294391987203984164E-06
    0.11770797453096504737E-06
   -0.15165946926438791657E-06
   -0.15167685192982758992E-06
    0.11968233111265843484E-06
   -0.15240764289075538077E-06
    0.24253646470993477298E-06
    0.11918443824669868109E-06
    0.22843483163103159431E-06
    0.11957515004653491929E-05
    0.11957588469443835600E-05
   -0.15134576336904748857E-06
    0.11698287676115069803E-06
   -0.15296492940024916755E-06
   -0.15286960384800923964E-06
    0.11709494019075580149E-06
   -0.15184189653159412956E-06
   -0.15169165430515250804E-06
    0.12027999775306827842E-06
   -0.15222359628717002085E-06
   -0.15238270965058919709E-06
    0.12116612428219912559E-06
   -0.15168657488136450634E-06
    0.11952360826097280142E-05
    0.11944606604436961620E-05
   -0.15164516358630698271E-06
    0.11774377090735716288E-06
   -0.15299346691413833366E-06
   -0.15293428570927040991E-06
    0.11769195970610143776E-06
   -0.15177832174140735377E-06
   -0.15168631461534518987E-06
    0.11953952688570616693E-06
   -0.15241804215937798623E-06
    0.24255676710117696843E-06
    0.11935400499284245530E-06
    0.22847728176884262314E-06
    0.11958677184372535029E-05
    0.11955758057199871560E-05
   -0.15111163217924969326E-06
    0.11670367231730727574E-06
   -0.15300305362133219476E-06
   -0.15283131112583795795E-06
    0.11673109835491017944E-06
   -0.15191864954405992532E-06
   -0.15170721733352445359E-06
    0.12002794825402689263E-06
   -0.15200720068458883968E-06
   -0.15234569003728336640E-06
    0.12205214431119623169E-06
   -0.15156562013965796522E-06
    0.11953496024864486448E-05
    0.11938129641400417829E-05
   -0.15093972782892599273E-06
    0.11567265061670587599E-06
   -0.15294366096270811459E-06
   -0.15277097260312511465E-06
    0.11600119755756521541E-06
   -0.15198325156125062420E-06
   -0.15172222684310121838E-06
    0.12200886501054357909E-06
   -0.15149627568517393796E-06
   -0.15182890230841159583E-06
    0.12416134564718820568E-06
   -0.15159905094593018733E-06
    0.11940911628648804084E-05
    0.11925653835580715995E-05
   -0.15046178889828395903E-06
    0.11338404325102738754E-06
   -0.15286813963809211812E-06
   -0.15262743858721369850E-06
    0.11376393546154449551E-06
   -0.15176774013829779173E-06
   -0.15177234923348326821E-06
    0.12605958712935946982E-06
   -0.15033881028243432785E-06
   -0.15075681326907390029E-06
    0.12886677008052982898E-06
   -0.15165297211658820144E-06
    0.11915987278017222869E-05
    0.11896002858507521495E-05
   -0.15041176176977969481E-06
    0.11500813679877767570E-06
   -0.15301966849652382140E-06
   -0.15267554236959696647E-06
    0.11516690830899640021E-06
   -0.15214887676994066204E-06
   -0.15175339268108385523E-06
    0.12156137614423329948E-06
   -0.15096573994762531898E-06
   -0.15169049806655522704E-06
    0.12624626376222925808E-06
   -0.15128740707187468038E-06
    0.11942496032417802403E-05
    0.11910354140780867402E-05
   -0.14927566570605579628E-06
    0.11189046994250127501E-06
   -0.15304791841935831152E-06
   -0.15238932616482929647E-06
    0.11231439260443921875E-06
   -0.15253766168383344197E-06
   -0.15184717902347306694E-06
    0.12527135986116591946E-06
   -0.14909734955827464802E-06
   -0.15038365266950351043E-06
    0.13361037384545910024E-06
   -0.15094202349014843290E-06
    0.11919165328743012817E-05
    0.11859936212882071959E-05
   -0.15154481393981887658E-06
    0.11773183995419666719E-06
   -0.15302129028465852183E-06
   -0.15292701348596437240E-06
    0.11761241637787364817E-06
   -0.15180754273849693609E-06
   -0.15169459146884910267E-06
    0.11913546624386263580E-06
   -0.15252432125548276201E-06
    0.24258969863339251731E-06
    0.11944136302088090785E-06
    0.22856609639457247195E-06
    0.11961080546597726668E-05
    0.11954482894416713160E-05
   -0.15087878458329303425E-06
    0.11656267690342264259E-06
   -0.15304909857863077937E-06
   -0.15280306874936867567E-06
    0.11646626498979988421E-06
   -0.15198539194558198445E-06
   -0.15172118642299364143E-06
    0.11933592566870632986E-06
   -0.15185470445407587769E-06
   -0.15239522087998465947E-06
    0.12269712725954988801E-06
   -0.15139247064543285324E-06
    0.11956779261009504629E-05
    0.11933287659445466880E-05
   -0.15144214092175723307E-06
    0.11777516339629388337E-06
   -0.15304798866509333195E-06
   -0.15292369030930674699E-06
    0.11758801476421851449E-06
   -0.15182611033194114875E-06
   -0.15170020686722559860E-06
    0.11855020723295654253E-06
   -0.15268300257289081203E-06
    0.24260871818688488426E-06
    0.11943463008644343618E-06
    0.22867752676648504307E-06
    0.11964241320970942975E-05
    0.11954050346728116840E-05
   -0.15069632805037938913E-06
    0.11658009664993814100E-06
   -0.15309248014721549038E-06
   -0.15279013061365094074E-06
    0.11635507577870243484E-06
   -0.15202695483435324183E-06
   -0.15173051217665915077E-06
    0.11838361013735643560E-06
   -0.15180221406305827475E-06
   -0.15251981553668622545E-06
    0.12298131744260975400E-06
   -0.15121883933597752169E-06
    0.11961372672906117646E-05
    0.11931115284624807884E-05
   -0.14992385714091414522E-06
    0.11468037488197080505E-06
   -0.15311005395583415023E-06
   -0.15260954969002304882E-06
    0.11457829591515925804E-06
   -0.15228861450261420759E-06
   -0.15178161289958056602E-06
    0.12013499327087654187E-06
   -0.15058707164776290416E-06
   -0.15173929832041893408E-06
    0.12776369683846228488E-06
   -0.15091512013145107976E-06
    0.11948706229199537339E-05
    0.11899316780612938061E-05
   -0.14829074379958129633E-06
    0.11131802666795013759E-06
   -0.15323575868904537318E-06
   -0.15225367858925620910E-06
    0.11114217983814805243E-06
   -0.15282555236425850946E-06
   -0.15191037985563926532E-06
    0.12185626149219972492E-06
   -0.14829435019829477058E-06
   -0.15049516723131865841E-06
    0.13673283542514001863E-06
   -0.15012449431195791341E-06