# vtk DataFile Version 3.0
LAPLACIEN  2D
ASCII
DATASET UNSTRUCTURED_GRID
 POINTS        1857  float
   3.1250000000000000E-002  0.93750000000000000        0.0000000000000000     
   6.2500000000000000E-002  0.93750000000000000        0.0000000000000000     
   6.2500000000000000E-002  0.96875000000000000        0.0000000000000000     
   1.8749999999999999E-002  0.95625000000000004        0.0000000000000000     
   4.0625000000000001E-002  0.95937499999999998        0.0000000000000000     
   4.3749999999999997E-002  0.98124999999999996        0.0000000000000000     
   2.1874999999999999E-002  0.97812500000000002        0.0000000000000000     
   9.3750000000000000E-002  0.93750000000000000        0.0000000000000000     
  0.12500000000000000       0.93750000000000000        0.0000000000000000     
  0.12500000000000000       0.96875000000000000        0.0000000000000000     
   8.1250000000000003E-002  0.95625000000000004        0.0000000000000000     
  0.10312499999999999       0.95937499999999998        0.0000000000000000     
  0.10625000000000000       0.98124999999999996        0.0000000000000000     
   8.4375000000000006E-002  0.97812500000000002        0.0000000000000000     
   3.1250000000000000E-002  0.87500000000000000        0.0000000000000000     
   6.2500000000000000E-002  0.87500000000000000        0.0000000000000000     
   6.2500000000000000E-002  0.90625000000000000        0.0000000000000000     
   1.8749999999999999E-002  0.89375000000000004        0.0000000000000000     
   4.0625000000000001E-002  0.89687499999999998        0.0000000000000000     
   4.3749999999999997E-002  0.91874999999999996        0.0000000000000000     
   2.1874999999999999E-002  0.91562500000000002        0.0000000000000000     
   9.3750000000000000E-002  0.87500000000000000        0.0000000000000000     
  0.12500000000000000       0.87500000000000000        0.0000000000000000     
  0.12500000000000000       0.90625000000000000        0.0000000000000000     
   8.1250000000000003E-002  0.89375000000000004        0.0000000000000000     
  0.10312499999999999       0.89687499999999998        0.0000000000000000     
  0.10625000000000000       0.91874999999999996        0.0000000000000000     
   8.4375000000000006E-002  0.91562500000000002        0.0000000000000000     
  0.15625000000000000       0.93750000000000000        0.0000000000000000     
  0.18750000000000000       0.93750000000000000        0.0000000000000000     
  0.18750000000000000       0.96875000000000000        0.0000000000000000     
  0.14374999999999999       0.95625000000000004        0.0000000000000000     
  0.16562499999999999       0.95937499999999998        0.0000000000000000     
  0.16875000000000001       0.98124999999999996        0.0000000000000000     
  0.14687500000000001       0.97812500000000002        0.0000000000000000     
  0.21875000000000000       0.93750000000000000        0.0000000000000000     
  0.25000000000000000       0.93750000000000000        0.0000000000000000     
  0.25000000000000000       0.96875000000000000        0.0000000000000000     
  0.20624999999999999       0.95625000000000004        0.0000000000000000     
  0.22812499999999999       0.95937499999999998        0.0000000000000000     
  0.23125000000000001       0.98124999999999996        0.0000000000000000     
  0.20937500000000001       0.97812500000000002        0.0000000000000000     
  0.15625000000000000       0.87500000000000000        0.0000000000000000     
  0.18750000000000000       0.87500000000000000        0.0000000000000000     
  0.18750000000000000       0.90625000000000000        0.0000000000000000     
  0.14374999999999999       0.89375000000000004        0.0000000000000000     
  0.16562499999999999       0.89687499999999998        0.0000000000000000     
  0.16875000000000001       0.91874999999999996        0.0000000000000000     
  0.14687500000000001       0.91562500000000002        0.0000000000000000     
  0.21875000000000000       0.87500000000000000        0.0000000000000000     
  0.25000000000000000       0.87500000000000000        0.0000000000000000     
  0.25000000000000000       0.90625000000000000        0.0000000000000000     
  0.20624999999999999       0.89375000000000004        0.0000000000000000     
  0.22812499999999999       0.89687499999999998        0.0000000000000000     
  0.23125000000000001       0.91874999999999996        0.0000000000000000     
  0.20937500000000001       0.91562500000000002        0.0000000000000000     
   3.1250000000000000E-002  0.81250000000000000        0.0000000000000000     
   6.2500000000000000E-002  0.81250000000000000        0.0000000000000000     
   6.2500000000000000E-002  0.84375000000000000        0.0000000000000000     
   1.8749999999999999E-002  0.83125000000000004        0.0000000000000000     
   4.0625000000000001E-002  0.83437499999999998        0.0000000000000000     
   4.3749999999999997E-002  0.85624999999999996        0.0000000000000000     
   2.1874999999999999E-002  0.85312500000000002        0.0000000000000000     
   9.3750000000000000E-002  0.81250000000000000        0.0000000000000000     
  0.12500000000000000       0.81250000000000000        0.0000000000000000     
  0.12500000000000000       0.84375000000000000        0.0000000000000000     
   8.1250000000000003E-002  0.83125000000000004        0.0000000000000000     
  0.10312499999999999       0.83437499999999998        0.0000000000000000     
  0.10625000000000000       0.85624999999999996        0.0000000000000000     
   8.4375000000000006E-002  0.85312500000000002        0.0000000000000000     
   3.1250000000000000E-002  0.75000000000000000        0.0000000000000000     
   6.2500000000000000E-002  0.75000000000000000        0.0000000000000000     
   6.2500000000000000E-002  0.78125000000000000        0.0000000000000000     
   1.8749999999999999E-002  0.76875000000000004        0.0000000000000000     
   4.0625000000000001E-002  0.77187499999999998        0.0000000000000000     
   4.3749999999999997E-002  0.79374999999999996        0.0000000000000000     
   2.1874999999999999E-002  0.79062500000000002        0.0000000000000000     
   9.3750000000000000E-002  0.75000000000000000        0.0000000000000000     
  0.12500000000000000       0.75000000000000000        0.0000000000000000     
  0.12500000000000000       0.78125000000000000        0.0000000000000000     
   8.1250000000000003E-002  0.76875000000000004        0.0000000000000000     
  0.10312499999999999       0.77187499999999998        0.0000000000000000     
  0.10625000000000000       0.79374999999999996        0.0000000000000000     
   8.4375000000000006E-002  0.79062500000000002        0.0000000000000000     
  0.15625000000000000       0.81250000000000000        0.0000000000000000     
  0.18750000000000000       0.81250000000000000        0.0000000000000000     
  0.18750000000000000       0.84375000000000000        0.0000000000000000     
  0.14374999999999999       0.83125000000000004        0.0000000000000000     
  0.16562499999999999       0.83437499999999998        0.0000000000000000     
  0.16875000000000001       0.85624999999999996        0.0000000000000000     
  0.14687500000000001       0.85312500000000002        0.0000000000000000     
  0.21875000000000000       0.81250000000000000        0.0000000000000000     
  0.25000000000000000       0.81250000000000000        0.0000000000000000     
  0.25000000000000000       0.84375000000000000        0.0000000000000000     
  0.20624999999999999       0.83125000000000004        0.0000000000000000     
  0.22812499999999999       0.83437499999999998        0.0000000000000000     
  0.23125000000000001       0.85624999999999996        0.0000000000000000     
  0.20937500000000001       0.85312500000000002        0.0000000000000000     
  0.15625000000000000       0.75000000000000000        0.0000000000000000     
  0.18750000000000000       0.75000000000000000        0.0000000000000000     
  0.18750000000000000       0.78125000000000000        0.0000000000000000     
  0.14374999999999999       0.76875000000000004        0.0000000000000000     
  0.16562499999999999       0.77187499999999998        0.0000000000000000     
  0.16875000000000001       0.79374999999999996        0.0000000000000000     
  0.14687500000000001       0.79062500000000002        0.0000000000000000     
  0.21875000000000000       0.75000000000000000        0.0000000000000000     
  0.25000000000000000       0.75000000000000000        0.0000000000000000     
  0.25000000000000000       0.78125000000000000        0.0000000000000000     
  0.20624999999999999       0.76875000000000004        0.0000000000000000     
  0.22812499999999999       0.77187499999999998        0.0000000000000000     
  0.23125000000000001       0.79374999999999996        0.0000000000000000     
  0.20937500000000001       0.79062500000000002        0.0000000000000000     
  0.28125000000000000       0.93750000000000000        0.0000000000000000     
  0.31250000000000000       0.93750000000000000        0.0000000000000000     
  0.31250000000000000       0.96875000000000000        0.0000000000000000     
  0.26874999999999999       0.95625000000000004        0.0000000000000000     
  0.29062500000000002       0.95937499999999998        0.0000000000000000     
  0.29375000000000001       0.98124999999999996        0.0000000000000000     
  0.27187499999999998       0.97812500000000002        0.0000000000000000     
  0.34375000000000000       0.93750000000000000        0.0000000000000000     
  0.37500000000000000       0.93750000000000000        0.0000000000000000     
  0.37500000000000000       0.96875000000000000        0.0000000000000000     
  0.33124999999999999       0.95625000000000004        0.0000000000000000     
  0.35312500000000002       0.95937499999999998        0.0000000000000000     
  0.35625000000000001       0.98124999999999996        0.0000000000000000     
[...]
 CELL_DATA        3584
 SCALARS Tumor_cells float
 LOOKUP_TABLE default
   -0.72964411769372762657E-06
    0.75914889207896747466E-06
   -0.61264045199299171275E-06
   -0.61264024294673003843E-06
    0.75914884782401992705E-06
   -0.72964406535635146219E-06
    0.13926714423595506423E-05
    0.77048543265060787192E-06
    0.14845711448530467546E-05
    0.14845711727210382536E-05
    0.77048548115354010534E-06
    0.13926713494817704889E-05
    0.84149739423470315466E-05
    0.84149743310432749784E-05
   -0.72778547509612455889E-06
    0.75535719692146305748E-06
   -0.61280287123957291295E-06
   -0.61285196671930410767E-06
    0.75541081711341872906E-06
   -0.72965267889258992503E-06
    0.13895532199930915258E-05
    0.77600550565458369823E-06
    0.14835883093074159101E-05
   -0.60675363933536302396E-06
    0.78714920159513680124E-06
   -0.72963862031173944922E-06
    0.84100800464843427501E-05
    0.84003591285692502276E-05
   -0.72965278855445890080E-06
    0.75541081141569183776E-06
   -0.61285201215773403012E-06
   -0.61280268879711347544E-06
    0.75535727812711077481E-06
   -0.72778533139713371148E-06
   -0.72963865991647749284E-06
    0.78714884700841718212E-06
   -0.60675378551926732368E-06
    0.14835883477061201737E-05
    0.77600559561873017884E-06
    0.13895531895205084423E-05
    0.84003581988776881843E-05
    0.84100798761850042897E-05
   -0.72813647591393291166E-06
    0.75048165656253893838E-06
   -0.61311942269246059938E-06
   -0.61311933734038829366E-06
    0.75048173330006085976E-06
   -0.72813631704369524131E-06
   -0.72995187954886637316E-06
    0.79619410349606346133E-06
   -0.60681088051986555289E-06
   -0.60681094452026674928E-06
    0.79619458166796523796E-06
   -0.72995181364237317129E-06
    0.83889602893599558706E-05
    0.83889606174419066511E-05
   -0.72637074833302235761E-06
    0.75111778492105465385E-06
   -0.61309395747429292260E-06
   -0.61314641412739928380E-06
    0.75189781599708532810E-06
   -0.72975139669758082759E-06
    0.13868383447614792026E-05
    0.78339512769779314573E-06
    0.14828996665568717296E-05
   -0.60246763045272550466E-06
    0.80371614035632370588E-06
   -0.72905667406364912296E-06
    0.84022341790456214029E-05
    0.83877578136421125318E-05
   -0.72611805934794058728E-06
    0.74734694625189369308E-06
   -0.61349817831544416455E-06
   -0.61349018296616262040E-06
    0.74918353413735247779E-06
   -0.72995244480058988572E-06
    0.13850261130481737715E-05
    0.79224757401503272172E-06
    0.14825719648706672289E-05
   -0.59890163720043542307E-06
    0.81734699765613565855E-06
   -0.72946888875727558841E-06
    0.83913915445048312765E-05
    0.83794046673558028268E-05
   -0.72650850584737788997E-06
    0.74266939971357735704E-06
   -0.61361911450483441620E-06
   -0.61357858212089442889E-06
    0.74322586628667391145E-06
   -0.72689277223049239823E-06
   -0.73017815865297640811E-06
    0.81572990181692857340E-06
   -0.60317546656664804409E-06
   -0.60331139768537835616E-06
    0.82176599969782049448E-06
   -0.73015663085948065153E-06
    0.83675337182186476377E-05
    0.83682292575374961081E-05
   -0.72688912730538886405E-06
    0.73437168887585579719E-06
   -0.61436400743619219629E-06
   -0.61414123340009955116E-06
    0.73378097976568559828E-06
   -0.72358887114631617054E-06
   -0.73046574282391949753E-06
    0.84734066155545543899E-06
   -0.59945603745333110007E-06
   -0.59837284462876401545E-06
    0.84314560995524318899E-06
   -0.73051576667831208361E-06
    0.83345618750842082902E-05
    0.83511403337974578610E-05
   -0.72975148114206940054E-06
    0.75189772724862223861E-06
   -0.61314655917859501052E-06
   -0.61309370658904941222E-06
    0.75111783197547669120E-06
   -0.72637063083398622545E-06
   -0.72905664415207364224E-06
    0.80371588220626611882E-06
   -0.60246776853549764135E-06
    0.14828996271381157573E-05
    0.78339519639964341019E-06
    0.13868383312656589966E-05
    0.83877573123352612767E-05
    0.84022344556110435779E-05
   -0.72689293425984966553E-06
    0.74322577115682923937E-06
   -0.61357867537868490270E-06
   -0.61361896527180653571E-06
    0.74266946111930805411E-06
   -0.72650838682765789601E-06
   -0.73015669824455033097E-06
    0.82176556693204862704E-06
   -0.60331137477991276124E-06
   -0.60317549302114759493E-06
    0.81573023311251250896E-06
   -0.73017812419342025331E-06
    0.83682294452816814050E-05
    0.83675346622509653690E-05
   -0.72995249527851623148E-06
    0.74918358143482638420E-06
   -0.61349029520889630546E-06
   -0.61349796408266444068E-06
    0.74734693317562023485E-06
   -0.72611792367991178773E-06
   -0.72946895224821092510E-06
    0.81734671745394141971E-06
   -0.59890171522367860773E-06
    0.14825719910258530765E-05
    0.79224760874032915834E-06
    0.13850260876588704561E-05
    0.83794042173396510290E-05
    0.83913918464666271626E-05
   -0.72358899377078540659E-06
    0.73378081721278234848E-06
   -0.61414132359922895908E-06
   -0.61436385512117871540E-06
    0.73437171146786033284E-06
   -0.72688900059349247256E-06
   -0.73051583800450430563E-06
    0.84314521038010626456E-06
   -0.59837280579906821248E-06
   -0.59945605147719355128E-06
    0.84734097675330865505E-06
   -0.73046574044642485777E-06
    0.83511405321172662447E-05
    0.83345627836744042363E-05
   -0.72367298975390337953E-06
    0.72883691273806816912E-06
   -0.61444956656085970318E-06
   -0.61444940606215555783E-06
    0.72883688669944792521E-06
   -0.72367291801720659226E-06
   -0.73048747756891203970E-06
    0.86059131304669396552E-06
   -0.59657059671440494438E-06
   -0.59657063859642092460E-06
    0.86059167184020017607E-06
   -0.73048744929862658339E-06
    0.83286854418748312997E-05
    0.83286858124135309850E-05
   -0.72320376665981221612E-06
    0.71111216422982018996E-06
   -0.61589976763929907441E-06
   -0.61558235515946795829E-06
    0.70874877311242698714E-06
   -0.71642663300235706011E-06
   -0.73087914652813712911E-06
    0.92802680481031775437E-06
   -0.58833373949236239717E-06
   -0.58610456605314330397E-06
    0.90446630466821723626E-06
   -0.73108028455736221484E-06
    0.82614417226273894148E-05
    0.82900417488348564964E-05
   -0.71642668360904162534E-06
    0.70874869994526508783E-06
   -0.61558247279061243110E-06
   -0.61589964411293435535E-06
    0.71111222116544398692E-06
   -0.72320364938434291297E-06
   -0.73108033093415217692E-06
    0.90446602832727446237E-06
   -0.58610452660935899039E-06
   -0.58833371135904926234E-06
    0.92802716846196226978E-06
   -0.73087912776699018692E-06
    0.82900413499261214726E-05
    0.82614420832332539061E-05
   -0.71076665139835745674E-06
    0.67180283609339246090E-06
   -0.61833379637554239136E-06
   -0.61833368162470963288E-06
    0.67180289560292322676E-06
   -0.71076649034283926285E-06
   -0.73168403234314555330E-06
    0.10250226439544079340E-05
   -0.56810763934189011351E-06
   -0.56810758783074366133E-06
    0.10250229506279959017E-05
   -0.73168399617181035099E-06
    0.81707469156325231288E-05
    0.81707472936274488668E-05
   -0.72748101019402418362E-06
    0.74498285115042723811E-06
   -0.61396726363388526774E-06
   -0.61381936245588741441E-06
    0.74795015725282272272E-06
   -0.73018196560996740288E-06
    0.13847180294110163035E-05
    0.80136531182300994744E-06
    0.14827486970786723648E-05
   -0.59687251649901388844E-06
    0.82380365934421829793E-06
   -0.73050541577852596693E-06
    0.83786250549921840699E-05
    0.83782104206475064949E-05
   -0.73016380905584045653E-06
    0.74439533442831018728E-06
   -0.61437595713836942092E-06
   -0.61407265553710770943E-06
    0.74599568765253338523E-06
   -0.72822854789695873689E-06
    0.13862806994432683729E-05
    0.80881078139338690469E-06
    0.14835046923873036343E-05
   -0.59721150764390904611E-06
    0.81830237960968353159E-06
   -0.73085641411887835722E-06
    0.83664879560398209250E-05
    0.83860401571885136710E-05
   -0.72965128423176470297E-06
    0.72673660120155653204E-06
   -0.61522573390381964116E-06
   -0.61471159456151935816E-06
    0.72362575122654792910E-06
   -0.71822827366054257868E-06
   -0.73076329999622659396E-06
    0.88912175705503949060E-06
   -0.59639057888038078100E-06
   -0.59240666887745707912E-06
    0.85312852432387581523E-06
   -0.73104346697194731782E-06
    0.82922236825426755101E-05
    0.83436541115949816995E-05
   -0.72943654069453201826E-06
    0.71505406955362208817E-06
   -0.61587085550108886239E-06
   -0.61516461785510594229E-06
    0.71536857329803403941E-06
   -0.71177225838470135962E-06
   -0.72680412351277764992E-06
    0.92809525093525299741E-06
   -0.59505449933847758128E-06
   -0.58670620083097867892E-06
    0.84464833838829286254E-06
   -0.73160551270230349470E-06
    0.82491045508312782638E-05
    0.83507893329332147386E-05
   -0.73027742757947502102E-06
    0.74147944144671520068E-06
   -0.61463972602289489232E-06
   -0.61419924447222445934E-06
    0.74561412580933574486E-06
   -0.72582763081611991140E-06
    0.13895379458094089056E-05
    0.81271415444538724504E-06
    0.14847566050437272109E-05
   -0.60021351302166920454E-06
    0.80163928286535010066E-06
   -0.73115260669126306811E-06
    0.83580121802216092198E-05
    0.84020810476365570714E-05
   -0.73039079963762194875E-06
    0.74016414516172641550E-06
   -0.61471835882496457662E-06
   -0.61417381615014217366E-06
    0.74688364823358487282E-06
   -0.72343468269427082359E-06
    0.13935938418835407924E-05
    0.81248802390844889086E-06
    0.14855813123231532207E-05
   -0.60465940428341354282E-06
    0.77702380060496795024E-06
   -0.73135548873014620887E-06
    0.83551368708237335847E-05
    0.84231647177846954571E-05
   -0.72933842655076887956E-06
    0.70600081367823291939E-06
   -0.61614568485848878559E-06
   -0.61539985299001090177E-06
    0.71112820275323419131E-06
   -0.70572023004676244857E-06
   -0.72111018755929063382E-06
    0.95698609745752545361E-06
   -0.59608903651752477911E-06
   -0.58290967382755775543E-06
    0.81759373934622478498E-06
   -0.73212974541003822733E-06
    0.82166624040935455013E-05
    0.83719525108936269063E-05
   -0.72947352191432309153E-06
    0.70151360165764778820E-06
   -0.61606794472553982534E-06
   -0.61536446632926068553E-06
    0.71155667534597225760E-06
   -0.70125111162909842692E-06
   -0.71540398014485290276E-06
    0.97020050481784691243E-06
   -0.59931653347334050580E-06
   -0.58191816234037575810E-06
    0.77891339924889615767E-06
   -0.73250124520490917250E-06
    0.82019050272758234755E-05
    0.84019483116810530219E-05
   -0.72852354995427978343E-06
    0.69433261852234236690E-06
   -0.61779336629984914329E-06
   -0.61683374767564238012E-06
    0.68507776827391980837E-06
   -0.70426010459160051502E-06
   -0.72754782310834987794E-06
    0.10196697629038988828E-05
   -0.57993271437839400002E-06
   -0.57196412453237309689E-06
    0.93063021999878860386E-06
   -0.73214736110038453210E-06
    0.81656159733880652154E-05
    0.82662810659254861779E-05
   -0.72685540074502326177E-06
    0.66740945082331531878E-06
   -0.61856753921183370795E-06
   -0.61785644912844061988E-06
    0.66522067360167537822E-06
   -0.68978506178320749451E-06
   -0.71650912083143789188E-06
    0.11121123908817379630E-05
   -0.57448859542223257349E-06
   -0.55759463381508400591E-06
    0.91652507924602014224E-06
   -0.73330181629800361294E-06
    0.80623382665345933893E-05
    0.82739228224146892077E-05
   -0.71267247610421265738E-06
    0.62809033865109248487E-06
   -0.62229712282813606198E-06
   -0.62109465540647158644E-06
    0.61774172692690528119E-06
   -0.68528043051936214669E-06
   -0.72823077866501659811E-06
    0.12225511091226801739E-05
   -0.54483355574078867223E-06
   -0.53544205139417637489E-06
    0.11047115177743328977E-05
   -0.73338861671917029325E-06
    0.79640222646122157014E-05
    0.80948762332918374352E-05
   -0.71349383675364355169E-06
    0.58312337488681327381E-06
   -0.62030099517065927043E-06
   -0.62264723872999747185E-06
    0.57346775776128867782E-06
   -0.65419882577552822008E-06
   -0.69996884811307618914E-06
    0.14318621164087054783E-05
   -0.52647198370412024689E-06
   -0.49954922431176687487E-06
    0.10786758981384496173E-05
   -0.73571816866627320264E-06
    0.77201698318301098040E-05
    0.80995115167443801487E-05
   -0.72574126351908970368E-06
    0.64685539853025574619E-06
   -0.61801230276532941877E-06
   -0.61837708078216415128E-06
    0.65483716283216781810E-06
   -0.67710059808522971930E-06
   -0.70297240207644126151E-06
    0.11820359900137005205E-05
   -0.57442306390564971654E-06
   -0.54822083816789176763E-06
    0.86205929866155001585E-06
   -0.73443545393786185244E-06
    0.79856096577124182593E-05
    0.83113747772622202653E-05
   -0.72590356140902872481E-06
    0.63686504362109784326E-06
   -0.61684595714059552437E-06
   -0.61828289590947904302E-06
    0.65463781064494061460E-06
   -0.66851588595624393124E-06
   -0.69074663463447329188E-06
    0.12152758850738999344E-05
   -0.57955830461173034269E-06
   -0.54591947681321045763E-06
    0.78829830112192310268E-06
   -0.73527349435283873525E-06
    0.79509134926596775164E-05
    0.83652632057807860944E-05
   -0.70770601873424768817E-06
    0.54366601860001998656E-06
   -0.61284017524547959784E-06
   -0.62260002143069386018E-06
    0.55407320604383577537E-06
   -0.62967311253574840435E-06
   -0.66545591573332352141E-06
    0.15812096989548543373E-05
   -0.52334628158864956367E-06
   -0.48073104809062774153E-06
    0.95075901101898257474E-06
   -0.73722011321550711809E-06
    0.75593706791828795363E-05
    0.81720356081055507431E-05
   -0.70802331554609772289E-06
    0.52725457579727948818E-06
   -0.60639778611138974870E-06
   -0.62153507246343857543E-06
    0.55405666450478192124E-06
   -0.61402752605583056078E-06
   -0.63656158485809980906E-06
    0.16499425637649289809E-05
   -0.53354217715167242696E-06
   -0.47997600387031231803E-06
    0.80402341366883771784E-06
   -0.73823355511078274297E-06
    0.74945161313290766994E-05
    0.82701560886250171257E-05
   -0.73018198890947198372E-06
    0.74795017996277723155E-06
   -0.61381958190754661098E-06
   -0.61396701374666383318E-06
    0.74498283661872353638E-06
   -0.72748086096292785588E-06
   -0.73050545560922402527E-06
    0.82380337669806666149E-06
   -0.59687277303587202823E-06
    0.14827487003975278701E-05
    0.80136538023613060886E-06
    0.13847180291881191600E-05
    0.83782099294334068661E-05
    0.83786253682010189550E-05
   -0.71822841657936536557E-06
    0.72362564774189309074E-06
   -0.61471178950420219302E-06
   -0.61522560974455306858E-06
    0.72673660690798382814E-06
   -0.72965119156594829770E-06
   -0.73104353458557930895E-06
    0.85312811460927530327E-06
   -0.59240674911872983391E-06
   -0.59639064513661547498E-06
    0.88912208495389372333E-06
   -0.73076328497819934909E-06
    0.83436542961940269371E-05
    0.82922246279894535600E-05
   -0.72822858815855018468E-06
    0.74599567471659931031E-06
   -0.61407283027164779506E-06
   -0.61437574398440071658E-06
    0.74439532570833956463E-06
   -0.73016367101038319166E-06
   -0.73085646508516610152E-06
    0.81830210322181301485E-06
   -0.59721172344496423671E-06
    0.14835047328618400120E-05
    0.80881084536856420106E-06
    0.13862806613634444854E-05
    0.83860397072622778087E-05
    0.83664882927279195230E-05
   -0.71177234095938555970E-06
    0.71536849470860671600E-06
   -0.61516481029969623334E-06
   -0.61587067225410122620E-06
    0.71505404491193588654E-06
   -0.72943646629778607013E-06
   -0.73160555016491861399E-06
    0.84464793615736407072E-06
   -0.58670621154338922213E-06
   -0.59505457927172299315E-06
    0.92809558847798814561E-06
   -0.72680408589206976025E-06
    0.83507894672209576108E-05
    0.82491054548652958451E-05
   -0.70426014710069520900E-06
    0.68507776228064374590E-06
   -0.61683395521641501080E-06
   -0.61779330412069446202E-06
    0.69433260491996954535E-06
   -0.72852346918850146369E-06
   -0.73214743791663721302E-06
    0.93062992272880985648E-06
   -0.57196421578599436140E-06
   -0.57993274059650581940E-06
    0.10196701079340120497E-05
   -0.72754779265015068443E-06
    0.82662806748395747605E-05
    0.81656163391272678514E-05
   -0.68528050299205962612E-06
    0.61774175920194980662E-06
   -0.62109487115756919733E-06
   -0.62229702609106341903E-06
    0.62809036017440306839E-06
   -0.71267236994311655894E-06
   -0.73338866366554131384E-06
    0.11047111984221846749E-05
   -0.53544219704003867613E-06
   -0.54483357662475984595E-06
    0.12225514178264307804E-05
   -0.72823076615202312029E-06
    0.80948758170223456177E-05
    0.79640227188602389713E-05
   -0.68978515869045731514E-06
    0.66522065383019145407E-06
   -0.61785664057710397110E-06
   -0.61856743219163179577E-06
    0.66740949394434578913E-06
   -0.72685527879969858420E-06
   -0.73330180247651840277E-06
    0.91652482133721596152E-06
   -0.55759474139757518759E-06
   -0.57448860943687369465E-06
    0.11121127455823756784E-05
   -0.71650907325239752832E-06
    0.82739223640961593242E-05
    0.80623386359688773079E-05
   -0.65419887750662615290E-06
    0.57346775571950517055E-06
   -0.62264743271099403850E-06
   -0.62030088418850532258E-06
    0.58312340555728559429E-06
   -0.71349377078987557011E-06
   -0.73571819574572848504E-06
    0.10786756154733377836E-05
   -0.49954935761452446124E-06
   -0.52647194737417145483E-06
    0.14318623588580293826E-05
   -0.69996878475151994707E-06
    0.80995110113943509511E-05
    0.77201703292265758599E-05
   -0.72582767656750341451E-06
    0.74561411405566643492E-06
   -0.61419938699577720382E-06
   -0.61463952237474083893E-06
    0.74147941456009607432E-06
   -0.73027732199141036980E-06
   -0.73115266138834141580E-06
    0.80163901014798875826E-06
   -0.60021372248755068329E-06
    0.14847566309220402226E-05
    0.81271427050821262892E-06
    0.13895379523597759964E-05
    0.84020806258959303698E-05
    0.83580125091158866195E-05
   -0.70572034932099339680E-06
    0.71112807000282520165E-06
   -0.61540005781707599906E-06
   -0.61614562661072836762E-06
    0.70600082819183340945E-06
   -0.72933833384690184848E-06
   -0.73212975310881121157E-06
    0.81759334540686392675E-06
   -0.58290968889129333335E-06
   -0.59608909420917376236E-06
    0.95698646234370683123E-06
   -0.72111014328790672950E-06
    0.83719526708969326092E-05
    0.82166633158028809834E-05
   -0.72343473397336582362E-06
    0.74688364421843154477E-06
   -0.61417402647214431027E-06
   -0.61471819377768249309E-06
    0.74016418854160231948E-06
   -0.73039070233065918614E-06
   -0.73135545533607068083E-06
    0.77702350880317672995E-06
   -0.60465962745923319237E-06
    0.14855813174633326388E-05
    0.81248817723519992269E-06
    0.13935938071367498360E-05
    0.84231642761251945340E-05
    0.83551371585716525421E-05
   -0.70125121207826373858E-06
    0.71155652151129918951E-06
   -0.61536464337082830481E-06
   -0.61606789204125634110E-06
    0.70151360244910425681E-06
   -0.72947340061964465481E-06
   -0.73250126770366501566E-06
    0.77891300517392193645E-06
   -0.58191822224822059104E-06
   -0.59931655726313369689E-06
    0.97020089422221857029E-06
   -0.71540394110662118806E-06
    0.84019484308687802010E-05
    0.82019058736469601712E-05
   -0.67710067529748449086E-06
    0.65483708852770865068E-06
   -0.61837727997271192266E-06
   -0.61801222091118914775E-06
    0.64685542139981201460E-06
   -0.72574108988499904714E-06
   -0.73443547193425959249E-06
    0.86205907684872856293E-06
   -0.54822089531079469117E-06
   -0.57442307362110745715E-06
    0.11820363264689184210E-05
   -0.70297234505100370242E-06
    0.83113742835495021911E-05
    0.79856100329281475822E-05
   -0.62967321623151360520E-06
    0.55407318908354144190E-06
   -0.62260023270660544375E-06
   -0.61284008727798077984E-06
    0.54366605990083160453E-06
   -0.70770589723811951149E-06
   -0.73722012281164163336E-06
    0.95075885732655619640E-06
   -0.48073117505892608835E-06
   -0.52334619370885497225E-06
    0.15812100829050048767E-05
   -0.66545582783671934939E-06