# vtk DataFile Version 3.0
LAPLACIEN  2D
ASCII
DATASET UNSTRUCTURED_GRID
 POINTS        1857  float
   3.1250000000000000E-002  0.93750000000000000        0.0000000000000000     
   6.2500000000000000E-002  0.93750000000000000        0.0000000000000000     
   6.2500000000000000E-002  0.96875000000000000        0.0000000000000000     
   1.8749999999999999E-002  0.95625000000000004        0.0000000000000000     
   4.0625000000000001E-002  0.95937499999999998        0.0000000000000000     
   4.3749999999999997E-002  0.98124999999999996        0.0000000000000000     
   2.1874999999999999E-002  0.97812500000000002        0.0000000000000000     
   9.3750000000000000E-002  0.93750000000000000        0.0000000000000000     
  0.12500000000000000       0.93750000000000000        0.0000000000000000     
  0.12500000000000000       0.96875000000000000        0.0000000000000000     
   8.1250000000000003E-002  0.95625000000000004        0.0000000000000000     
  0.10312499999999999       0.95937499999999998        0.0000000000000000     
  0.10625000000000000       0.98124999999999996        0.0000000000000000     
   8.4375000000000006E-002  0.97812500000000002        0.0000000000000000     
   3.1250000000000000E-002  0.87500000000000000        0.0000000000000000     
   6.2500000000000000E-002  0.87500000000000000        0.0000000000000000     
   6.2500000000000000E-002  0.90625000000000000        0.0000000000000000     
   1.8749999999999999E-002  0.89375000000000004        0.0000000000000000     
   4.0625000000000001E-002  0.89687499999999998        0.0000000000000000     
   4.3749999999999997E-002  0.91874999999999996        0.0000000000000000     
   2.1874999999999999E-002  0.91562500000000002        0.0000000000000000     
   9.3750000000000000E-002  0.87500000000000000        0.0000000000000000     
  0.12500000000000000       0.87500000000000000        0.0000000000000000     
  0.12500000000000000       0.90625000000000000        0.0000000000000000     
   8.1250000000000003E-002  0.89375000000000004        0.0000000000000000     
  0.10312499999999999       0.89687499999999998        0.0000000000000000     
  0.10625000000000000       0.91874999999999996        0.0000000000000000     
   8.4375000000000006E-002  0.91562500000000002        0.0000000000000000     
  0.15625000000000000       0.93750000000000000        0.0000000000000000     
  0.18750000000000000       0.93750000000000000        0.0000000000000000     
  0.18750000000000000       0.96875000000000000        0.0000000000000000     
  0.14374999999999999       0.95625000000000004        0.0000000000000000     
  0.16562499999999999       0.95937499999999998        0.0000000000000000     
  0.16875000000000001       0.98124999999999996        0.0000000000000000     
  0.14687500000000001       0.97812500000000002        0.0000000000000000     
  0.21875000000000000       0.93750000000000000        0.0000000000000000     
  0.25000000000000000       0.93750000000000000        0.0000000000000000     
  0.25000000000000000       0.96875000000000000        0.0000000000000000     
  0.20624999999999999       0.95625000000000004        0.0000000000000000     
  0.22812499999999999       0.95937499999999998        0.0000000000000000     
  0.23125000000000001       0.98124999999999996        0.0000000000000000     
  0.20937500000000001       0.97812500000000002        0.0000000000000000     
  0.15625000000000000       0.87500000000000000        0.0000000000000000     
  0.18750000000000000       0.87500000000000000        0.0000000000000000     
  0.18750000000000000       0.90625000000000000        0.0000000000000000     
  0.14374999999999999       0.89375000000000004        0.0000000000000000     
  0.16562499999999999       0.89687499999999998        0.0000000000000000     
  0.16875000000000001       0.91874999999999996        0.0000000000000000     
  0.14687500000000001       0.91562500000000002        0.0000000000000000     
  0.21875000000000000       0.87500000000000000        0.0000000000000000     
  0.25000000000000000       0.87500000000000000        0.0000000000000000     
  0.25000000000000000       0.90625000000000000        0.0000000000000000     
  0.20624999999999999       0.89375000000000004        0.0000000000000000     
  0.22812499999999999       0.89687499999999998        0.0000000000000000     
  0.23125000000000001       0.91874999999999996        0.0000000000000000     
  0.20937500000000001       0.91562500000000002        0.0000000000000000     
   3.1250000000000000E-002  0.81250000000000000        0.0000000000000000     
   6.2500000000000000E-002  0.81250000000000000        0.0000000000000000     
   6.2500000000000000E-002  0.84375000000000000        0.0000000000000000     
   1.8749999999999999E-002  0.83125000000000004        0.0000000000000000     
   4.0625000000000001E-002  0.83437499999999998        0.0000000000000000     
   4.3749999999999997E-002  0.85624999999999996        0.0000000000000000     
   2.1874999999999999E-002  0.85312500000000002        0.0000000000000000     
   9.3750000000000000E-002  0.81250000000000000        0.0000000000000000     
  0.12500000000000000       0.81250000000000000        0.0000000000000000     
  0.12500000000000000       0.84375000000000000        0.0000000000000000     
   8.1250000000000003E-002  0.83125000000000004        0.0000000000000000     
  0.10312499999999999       0.83437499999999998        0.0000000000000000     
  0.10625000000000000       0.85624999999999996        0.0000000000000000     
   8.4375000000000006E-002  0.85312500000000002        0.0000000000000000     
   3.1250000000000000E-002  0.75000000000000000        0.0000000000000000     
   6.2500000000000000E-002  0.75000000000000000        0.0000000000000000     
   6.2500000000000000E-002  0.78125000000000000        0.0000000000000000     
   1.8749999999999999E-002  0.76875000000000004        0.0000000000000000     
   4.0625000000000001E-002  0.77187499999999998        0.0000000000000000     
   4.3749999999999997E-002  0.79374999999999996        0.0000000000000000     
   2.1874999999999999E-002  0.79062500000000002        0.0000000000000000     
   9.3750000000000000E-002  0.75000000000000000        0.0000000000000000     
  0.12500000000000000       0.75000000000000000        0.0000000000000000     
  0.12500000000000000       0.78125000000000000        0.0000000000000000     
   8.1250000000000003E-002  0.76875000000000004        0.0000000000000000     
  0.10312499999999999       0.77187499999999998        0.0000000000000000     
  0.10625000000000000       0.79374999999999996        0.0000000000000000     
   8.4375000000000006E-002  0.79062500000000002        0.0000000000000000     
  0.15625000000000000       0.81250000000000000        0.0000000000000000     
  0.18750000000000000       0.81250000000000000        0.0000000000000000     
  0.18750000000000000       0.84375000000000000        0.0000000000000000     
  0.14374999999999999       0.83125000000000004        0.0000000000000000     
  0.16562499999999999       0.83437499999999998        0.0000000000000000     
  0.16875000000000001       0.85624999999999996        0.0000000000000000     
  0.14687500000000001       0.85312500000000002        0.0000000000000000     
  0.21875000000000000       0.81250000000000000        0.0000000000000000     
  0.25000000000000000       0.81250000000000000        0.0000000000000000     
  0.25000000000000000       0.84375000000000000        0.0000000000000000     
  0.20624999999999999       0.83125000000000004        0.0000000000000000     
  0.22812499999999999       0.83437499999999998        0.0000000000000000     
  0.23125000000000001       0.85624999999999996        0.0000000000000000     
  0.20937500000000001       0.85312500000000002        0.0000000000000000     
  0.15625000000000000       0.75000000000000000        0.0000000000000000     
  0.18750000000000000       0.75000000000000000        0.0000000000000000     
  0.18750000000000000       0.78125000000000000        0.0000000000000000     
  0.14374999999999999       0.76875000000000004        0.0000000000000000     
  0.16562499999999999       0.77187499999999998        0.0000000000000000     
  0.16875000000000001       0.79374999999999996        0.0000000000000000     
  0.14687500000000001       0.79062500000000002        0.0000000000000000     
  0.21875000000000000       0.75000000000000000        0.0000000000000000     
  0.25000000000000000       0.75000000000000000        0.0000000000000000     
  0.25000000000000000       0.78125000000000000        0.0000000000000000     
  0.20624999999999999       0.76875000000000004        0.0000000000000000     
  0.22812499999999999       0.77187499999999998        0.0000000000000000     
  0.23125000000000001       0.79374999999999996        0.0000000000000000     
  0.20937500000000001       0.79062500000000002        0.0000000000000000     
  0.28125000000000000       0.93750000000000000        0.0000000000000000     
  0.31250000000000000       0.93750000000000000        0.0000000000000000     
  0.31250000000000000       0.96875000000000000        0.0000000000000000     
  0.26874999999999999       0.95625000000000004        0.0000000000000000     
  0.29062500000000002       0.95937499999999998        0.0000000000000000     
  0.29375000000000001       0.98124999999999996        0.0000000000000000     
  0.27187499999999998       0.97812500000000002        0.0000000000000000     
  0.34375000000000000       0.93750000000000000        0.0000000000000000     
  0.37500000000000000       0.93750000000000000        0.0000000000000000     
  0.37500000000000000       0.96875000000000000        0.0000000000000000     
  0.33124999999999999       0.95625000000000004        0.0000000000000000     
  0.35312500000000002       0.95937499999999998        0.0000000000000000     
  0.35625000000000001       0.98124999999999996        0.0000000000000000     
[...]
 CELL_DATA        3584
 SCALARS Tumor_cells float
 LOOKUP_TABLE default
   -0.14340560412147450371E-06
    0.11156675357292448258E-06
   -0.14514524093202080942E-06
   -0.14514524520333590603E-06
    0.11156674443765365883E-06
   -0.14340559801110413016E-06
    0.21569505399090443859E-06
    0.11182638791008631729E-06
    0.22884737443812892139E-06
    0.22884735512830174982E-06
    0.11182637697269200453E-06
    0.21569504841514343603E-06
    0.11234013263681157081E-05
    0.11234013509651338390E-05
   -0.14335445372517889654E-06
    0.11145178786509788952E-06
   -0.14514373852972958283E-06
   -0.14513597054277474920E-06
    0.11145879578414625979E-06
   -0.14342121938879876160E-06
    0.21562007399296343085E-06
    0.11193600750998252614E-06
    0.22882753109559101195E-06
   -0.14496934382608148751E-06
    0.11215539311422744566E-06
   -0.14338826372180393130E-06
    0.11233396663479268350E-05
    0.11232171338271290474E-05
   -0.14342122236498269416E-06
    0.11145879690745284649E-06
   -0.14513595226840602156E-06
   -0.14514371406145148664E-06
    0.11145179102280695162E-06
   -0.14335444447820692636E-06
   -0.14338826604275631603E-06
    0.11215539202944082044E-06
   -0.14496933073346582558E-06
    0.22882753259305341256E-06
    0.11193599802415217498E-06
    0.21562006972976735679E-06
    0.11232170509683042570E-05
    0.11233395865707303030E-05
   -0.14338476988274863970E-06
    0.11130521493370180690E-06
   -0.14512919085241761819E-06
   -0.14512920127333881914E-06
    0.11130521349573940772E-06
   -0.14338476286170183080E-06
   -0.14339683775756325372E-06
    0.11231802469767750173E-06
   -0.14496136938220732398E-06
   -0.14496137150097972047E-06
    0.11231805353834327154E-06
   -0.14339682591975490535E-06
    0.11230730544805547969E-05
    0.11230730511117021130E-05
   -0.14332334406846378994E-06
    0.11132444435059594392E-06
   -0.14514010462271659472E-06
   -0.14513222774326935492E-06
    0.11135522553499604398E-06
   -0.14343676926948638929E-06
    0.21555464081893209116E-06
    0.11208421952221590253E-06
    0.22881349625574780584E-06
   -0.14482945843434097216E-06
    0.11248365265263836788E-06
   -0.14337119177340375979E-06
    0.11232402679286271618E-05
    0.11230574927017994676E-05
   -0.14333366333879295599E-06
    0.11121118049819971949E-06
   -0.14513348433115321057E-06
   -0.14513605346728776519E-06
    0.11127221669023817026E-06
   -0.14344941676348283812E-06
    0.21551072612629040414E-06
    0.11226262052598878790E-06
    0.22880750494304325224E-06
   -0.14471262504788639533E-06
    0.11275692018219135678E-06
   -0.14338241889756686734E-06
    0.11231026326536156308E-05
    0.11229506787836677935E-05
   -0.14336094622674963313E-06
    0.11106950302026782921E-06
   -0.14511432181752987455E-06
   -0.14512103880125227079E-06
    0.11108636703787392757E-06
   -0.14336581485515895954E-06
   -0.14340273667080207699E-06
    0.11269828060419846555E-06
   -0.14483813616390831992E-06
   -0.14484351625974004708E-06
    0.11282671792075630033E-06
   -0.14340230070699368384E-06
    0.11228015785480123991E-05
    0.11228103657507986564E-05
   -0.14341645695648517324E-06
    0.11081915633660214961E-06
   -0.14508846972289829935E-06
   -0.14512380176549503034E-06
    0.11080067122321984827E-06
   -0.14327893811481394833E-06
   -0.14341065126736350543E-06
    0.11333411364741228284E-06
   -0.14471612485154549885E-06
   -0.14467830186692776617E-06
    0.11323942419460809792E-06
   -0.14341143409879342201E-06
    0.11223833663665063421E-05
    0.11225933652999026290E-05
   -0.14343676183304498806E-06
    0.11135521020326780452E-06
   -0.14513223655261137675E-06
   -0.14514008385334881994E-06
    0.11132443066479336815E-06
   -0.14332334544770177869E-06
   -0.14337117989526512877E-06
    0.11248365369876156542E-06
   -0.14482946040159775616E-06
    0.22881348036881822887E-06
    0.11208421396126001679E-06
    0.21555464502431223733E-06
    0.11230574871055283828E-05
    0.11232402786716173944E-05
   -0.14336583174529614803E-06
    0.11108636216313335343E-06
   -0.14512103530934150215E-06
   -0.14511431883289231494E-06
    0.11106949536448391109E-06
   -0.14336092712471054907E-06
   -0.14340231454303041712E-06
    0.11282669961736049475E-06
   -0.14484352055138126097E-06
   -0.14483813388938615207E-06
    0.11269826049107539589E-06
   -0.14340272941427206194E-06
    0.11228104319949101913E-05
    0.11228016715906063176E-05
   -0.14344942018318563619E-06
    0.11127223915674093108E-06
   -0.14513605118300904833E-06
   -0.14513348432202124249E-06
    0.11121115292177871905E-06
   -0.14333365919585790511E-06
   -0.14338241728148517870E-06
    0.11275691120061213345E-06
   -0.14471262195044839935E-06
    0.22880750459460322626E-06
    0.11226261091370933497E-06
    0.21551072848489594448E-06
    0.11229506753421801286E-05
    0.11231026406781732625E-05
   -0.14327897099555140554E-06
    0.11080065104531720758E-06
   -0.14512378327742333118E-06
   -0.14508846767533800091E-06
    0.11081913895046625031E-06
   -0.14341642084424822729E-06
   -0.14341143934303298174E-06
    0.11323941660700583220E-06
   -0.14467829294100235294E-06
   -0.14471611714499500515E-06
    0.11333410866624702167E-06
   -0.14341066606627605881E-06
    0.11225934530460295980E-05
    0.11223834501525031374E-05
   -0.14331176418493902698E-06
    0.11065054188608887404E-06
   -0.14509418534000987583E-06
   -0.14509417474652000556E-06
    0.11065052738614188012E-06
   -0.14331176936375415891E-06
   -0.14341149662845348676E-06
    0.11359495746815231269E-06
   -0.14461996957991364353E-06
   -0.14461997316215981425E-06
    0.11359496181551700516E-06
   -0.14341149936047847821E-06
    0.11223093383233345285E-05
    0.11223093325313395405E-05
   -0.14338360189414403689E-06
    0.11011504557646650478E-06
   -0.14504078152994095674E-06
   -0.14508962490847541704E-06
    0.11004070987242683855E-06
   -0.14312221536931029751E-06
   -0.14342420561717256108E-06
    0.11496405063755428027E-06
   -0.14436183084165320077E-06
   -0.14427996486042003233E-06
    0.11445430189230877109E-06
   -0.14342708867553543652E-06
    0.11214581343823893635E-05
    0.11218218982661267660E-05
   -0.14312220768746224917E-06
    0.11004071256619231792E-06
   -0.14508962811216969932E-06
   -0.14504076522903837342E-06
    0.11011503053278564949E-06
   -0.14338358898777837338E-06
   -0.14342709144848360721E-06
    0.11445431522752171007E-06
   -0.14427995205381057722E-06
   -0.14436182671075472629E-06
    0.11496404657178315003E-06
   -0.14342420006174249330E-06
    0.11218218934010808015E-05
    0.11214581465623299099E-05
   -0.14309221256797177187E-06
    0.10892508096197372006E-06
   -0.14500295097965998517E-06
   -0.14500294810764829374E-06
    0.10892508995055007081E-06
   -0.14309220010847361276E-06
   -0.14344989000401303241E-06
    0.11690984385408688435E-06
   -0.14374546220734768607E-06
   -0.14374547588357137800E-06
    0.11690983784052272843E-06
   -0.14344989042368082655E-06
    0.11203254740952041413E-05
    0.11203254659503847717E-05
   -0.14339849914167730652E-06
    0.11114063834016374596E-06
   -0.14512423611426779407E-06
   -0.14514901606676104917E-06
    0.11123081214771974502E-06
   -0.14345398379053195847E-06
    0.21550311040860969576E-06
    0.11244646405518467515E-06
    0.22881258434802886952E-06
   -0.14464523084293931284E-06
    0.11288462284884451245E-06
   -0.14341090204292871640E-06
    0.11229402018715925716E-05
    0.11229340245124592175E-05
   -0.14350583764001415661E-06
    0.11112657956058414707E-06
   -0.14511453355171640519E-06
   -0.14517035750973568625E-06
    0.11117276581374461215E-06
   -0.14338405869288706650E-06
    0.21554063628492548607E-06
    0.11259597035749161352E-06
    0.22883060011059923364E-06
   -0.14465440094598702994E-06
    0.11275838854571464877E-06
   -0.14341918413855084785E-06
    0.11227858256969075872E-05
    0.11230317823038999339E-05
   -0.14356551265974399000E-06
    0.11059330945161995377E-06
   -0.14505273444990891830E-06
   -0.14514273964771989845E-06
    0.11049302878835109146E-06
   -0.14311743261003117223E-06
   -0.14341944568603045483E-06
    0.11418932262121972835E-06
   -0.14462171122822407434E-06
   -0.14447822707664881341E-06
    0.11340685481825381580E-06
   -0.14342387181119205465E-06
    0.11218459721299417396E-05
    0.11224994665963652144E-05
   -0.14363699960775524596E-06
    0.11026942760363038678E-06
   -0.14501568918867358778E-06
   -0.14517778443483480781E-06
    0.11024377045112014301E-06
   -0.14290716163638628119E-06
   -0.14331119414553415127E-06
    0.11496869403059282207E-06
   -0.14458841819257064263E-06
   -0.14428307738665768641E-06
    0.11318269907611711540E-06
   -0.14343752266638205187E-06
    0.11212998947903541624E-05
    0.11225949798272104221E-05
   -0.14353286080981107760E-06
    0.11105621230118129183E-06
   -0.14510724152141561955E-06
   -0.14519623693192196164E-06
    0.11116219947529609431E-06
   -0.14329342259948286366E-06
    0.21561905643833625270E-06
    0.11267329814998941945E-06
    0.22885964058726452924E-06
   -0.14474974022734044580E-06
    0.11240212855193466630E-06
   -0.14342644759241577988E-06
    0.11226782464734705942E-05
    0.11232341727860177493E-05
   -0.14354998723257173302E-06
    0.11103506980894542271E-06
   -0.14510392791664936766E-06
   -0.14522122073545205750E-06
    0.11120095681951736336E-06
   -0.14320062207445093191E-06
    0.21571749990892570643E-06
    0.11266785371016601148E-06
    0.22887621518174804798E-06
   -0.14489223956949486441E-06
    0.11188648530227966773E-06
   -0.14343138908914562912E-06
    0.11226417286476208718E-05
    0.11235004275258766820E-05
   -0.14369915556655257324E-06
    0.11003420885950433409E-06
   -0.14498846522083080044E-06
   -0.14522056762229540436E-06
    0.11011793891485520013E-06
   -0.14269758827993508432E-06
   -0.14315632834628659052E-06
    0.11553589771135577223E-06
   -0.14463309509614853227E-06
   -0.14414545250482551857E-06
    0.11257121239833754318E-06
   -0.14344977280479117348E-06
    0.11208915997338867664E-05
    0.11228715942542049180E-05
   -0.14373775971086198414E-06
    0.10993618413018904833E-06
   -0.14497609629112235677E-06
   -0.14526122891771038166E-06
    0.11013356785757941040E-06
   -0.14253301501612755829E-06
   -0.14300110006489796036E-06
    0.11578578412369232645E-06
   -0.14474542732677419760E-06
   -0.14409792955698332759E-06
    0.11173113313946874175E-06
   -0.14345795111963453061E-06
    0.11207083993551016197E-05
    0.11232586975875756374E-05
   -0.14369749632891977338E-06
    0.10961642595776582929E-06
   -0.14495673050765926305E-06
   -0.14511992265096935754E-06
    0.10932263037771930811E-06
   -0.14275606979189461966E-06
   -0.14334094535149514005E-06
    0.11682386691234033037E-06
   -0.14412293804840299596E-06
   -0.14382276688081262287E-06
    0.11492457145279667941E-06
   -0.14345068025164187745E-06
    0.11202480996030344944E-05
    0.11215342457136680379E-05
   -0.14385246941243888799E-06
    0.10887327883220468342E-06
   -0.14486515577881783734E-06
   -0.14518984529857221720E-06
    0.10872902524411524455E-06
   -0.14228197628859852015E-06
   -0.14306238902457591561E-06
    0.11865783212717462738E-06
   -0.14399859181838390065E-06
   -0.14334433414402306036E-06
    0.11452554428122754092E-06
   -0.14347801451729602472E-06
    0.11189578543734852084E-05
    0.11216677675098550292E-05
   -0.14351232656554085653E-06
    0.10761778710879882724E-06
   -0.14481542028169756688E-06
   -0.14504309406412487481E-06
    0.10727780123658580044E-06
   -0.14233307051926486346E-06
   -0.14338874430911531589E-06
    0.12096471634159340609E-06
   -0.14315811825862136205E-06
   -0.14278066191173321579E-06
    0.11848751674497024153E-06
   -0.14349470096317540421E-06
    0.11177475813284228638E-05
    0.11194325103697599629E-05
   -0.14421888742520438820E-06
    0.10632637994462414641E-06
   -0.14458795296073463528E-06
   -0.14520876845802554117E-06
    0.10594295740756706886E-06
   -0.14126717748048838329E-06
   -0.14275415294620150452E-06
    0.12513883616212229843E-06
   -0.14282379198444034439E-06
   -0.14166149754412942907E-06
    0.11778378464144092670E-06
   -0.14356008734667033031E-06
    0.11147054271153277597E-05
    0.11197007470251294666E-05
   -0.14398308831337336609E-06
    0.10835014963331765268E-06
   -0.14480225813537715798E-06
   -0.14527391226955426551E-06
    0.10843632898014132049E-06
   -0.14184288746833176465E-06
   -0.14272976011246359305E-06
    0.11999253428035899669E-06
   -0.14404287898179014090E-06
   -0.14300243955197971713E-06
    0.11326437099527610729E-06
   -0.14350274322213974269E-06
    0.11180268587890865209E-05
    0.11221914949140100511E-05
   -0.14405931889459540422E-06
    0.10814113740802156362E-06
   -0.14477497921585631550E-06
   -0.14534917313137574215E-06
    0.10844746065325164071E-06
   -0.14152959528114176016E-06
   -0.14243003860458071573E-06
    0.12057270282049721297E-06
   -0.14422609080637051465E-06
   -0.14287614361672808128E-06
    0.11164199537545068555E-06
   -0.14351856044288763564E-06
    0.11176311961362293482E-05
    0.11229017518588735964E-05
   -0.14448863846397587724E-06
    0.10528471877253511796E-06
   -0.14446065141800572053E-06
   -0.14538385002261346215E-06
    0.10543139254344995192E-06
   -0.14037975701056102749E-06
   -0.14202484406690765474E-06
    0.12788621686529463399E-06
   -0.14292558072020472273E-06
   -0.14093544576475050971E-06
    0.11476484809010912533E-06
   -0.14361538592707711032E-06
    0.11128110921599898735E-05
    0.11209050047257434197E-05
   -0.14462222932728756829E-06
    0.10494235826686526326E-06
   -0.14440982697574464428E-06
   -0.14552059381859384502E-06
    0.10548648320292936178E-06
   -0.13980567772040003365E-06
   -0.14143602782083338643E-06
    0.12892963582737363337E-06
   -0.14329494161525615683E-06
   -0.14073321636683303839E-06
    0.11150542108288217068E-06
   -0.14364627937194417870E-06
    0.11121563839400458297E-05
    0.11222807522310846597E-05
   -0.14345398327022537406E-06
    0.11123082498879376637E-06
   -0.14514903370608328881E-06
   -0.14512419845322747770E-06
    0.11114063845869123679E-06
   -0.14339848926969092128E-06
   -0.14341090497894004680E-06
    0.11288462797280882151E-06
   -0.14464523947116083542E-06
    0.22881260211805713382E-06
    0.11244644672201448719E-06
    0.21550312462864722750E-06
    0.11229340130496447163E-05
    0.11229402113990839604E-05
   -0.14311744954845328860E-06
    0.11049303088361627225E-06
   -0.14514275647610491754E-06
   -0.14505272699256867316E-06
    0.11059330863113642045E-06
   -0.14356549436189902954E-06
   -0.14342387702065956194E-06
    0.11340684210068160537E-06
   -0.14447822720020283598E-06
   -0.14462173797462343431E-06
    0.11418932371002222942E-06
   -0.14341945255051346723E-06
    0.11224995261794253222E-05
    0.11218460618542910753E-05
   -0.14338406375050496562E-06
    0.11117276807321210608E-06
   -0.14517038467907381691E-06
   -0.14511451916766277522E-06
    0.11112655040218116480E-06
   -0.14350582251511123260E-06
   -0.14341919551340963314E-06
    0.11275839055399497219E-06
   -0.14465439803900510683E-06
    0.22883060810451716905E-06
    0.11259595186260971653E-06
    0.21554063523008923118E-06
    0.11230317820986898970E-05
    0.11227858248443521969E-05
   -0.14290715959654959974E-06
    0.11024376156655365453E-06
   -0.14517779255767351361E-06
   -0.14501568157774032892E-06
    0.11026942578926578938E-06
   -0.14363700385260381875E-06
   -0.14343752508322322491E-06
    0.11318267691885762653E-06
   -0.14428307478254234623E-06
   -0.14458842354804010730E-06
    0.11496869264391736787E-06
   -0.14331118554668781071E-06
    0.11225950355130183648E-05
    0.11212999736796058440E-05
   -0.14275607141358038416E-06
    0.10932264914431289715E-06
   -0.14511992526468549854E-06
   -0.14495674706717249306E-06
    0.10961641225784312164E-06
   -0.14369750383885462356E-06
   -0.14345068612168383111E-06
    0.11492458075045695403E-06
   -0.14382277843829631732E-06
   -0.14412295030288244179E-06
    0.11682387986359184470E-06
   -0.14334095489657585615E-06
    0.11215342536778993478E-05
    0.11202481064549446792E-05
   -0.14233307589797164472E-06
    0.10727781984000866982E-06
   -0.14504310966428329480E-06
   -0.14481542828363685136E-06
    0.10761778768675215793E-06
   -0.14351231715160905745E-06
   -0.14349472616867939924E-06
    0.11848750535294204546E-06
   -0.14278066083713959977E-06
   -0.14315813614644933059E-06
    0.12096472275484785910E-06
   -0.14338876012020995368E-06
    0.11194325174084540415E-05
    0.11177475968623114906E-05
   -0.14228196413646498008E-06
    0.10872903835844554900E-06
   -0.14518984497976137724E-06
   -0.14486516088651033908E-06
    0.10887328505062883983E-06
   -0.14385246326370329528E-06
   -0.14347801393308578076E-06
    0.11452556040233617124E-06
   -0.14334435275133529328E-06
   -0.14399861088908483030E-06
    0.11865783310339088553E-06
   -0.14306237435239730530E-06
    0.11216677556795521074E-05
    0.11189578612976091870E-05
   -0.14126717164529556207E-06
    0.10594296458190378604E-06
   -0.14520877931855848287E-06
   -0.14458795659161068804E-06
    0.10632635775821285399E-06
   -0.14421890254921948933E-06
   -0.14356008854010325117E-06
    0.11778379125864792998E-06
   -0.14166149543050071956E-06
   -0.14282379621241792670E-06
    0.12513883910917642383E-06
   -0.14275415196138202537E-06
    0.11197007534370136585E-05
    0.11147054428343201905E-05
   -0.14329342840589636407E-06
    0.11116222170709846624E-06
   -0.14519622298636521824E-06
   -0.14510723576250925901E-06
    0.11105618737438992790E-06
   -0.14353284899291009640E-06
   -0.14342645061190935408E-06
    0.11240213035058359969E-06
   -0.14474974223709480506E-06
    0.22885964901027111805E-06
    0.11267329429308206885E-06
    0.21561905668589849278E-06
    0.11232341684897203159E-05
    0.11226782546223514868E-05
   -0.14269758661559332294E-06
    0.11011792778879255694E-06
   -0.14522057399364951974E-06
   -0.14498846351306938902E-06
    0.11003421661125704542E-06
   -0.14369915407997859588E-06
   -0.14344977153431507389E-06
    0.11257118615183157798E-06
   -0.14414545683502653096E-06
   -0.14463311924759226048E-06
    0.11553591108254116816E-06
   -0.14315631964519805280E-06
    0.11228716652736216060E-05
    0.11208916851249749979E-05
   -0.14320062996439123200E-06
    0.11120096774425202757E-06
   -0.14522123381883749553E-06
   -0.14510392983967832633E-06
    0.11103508175792055884E-06
   -0.14354999988161251939E-06
   -0.14343137428013427249E-06
    0.11188649747208681495E-06
   -0.14489225511314930467E-06
    0.22887622136817774503E-06
    0.11266784325039966781E-06
    0.21571750514524619632E-06
    0.11235004270305510844E-05
    0.11226417304085610763E-05
   -0.14253302849679431847E-06
    0.11013356408138585582E-06
   -0.14526123827219468212E-06
   -0.14497609776901051418E-06
    0.10993615127709939502E-06
   -0.14373775148114047884E-06
   -0.14345795202174235419E-06
    0.11173111456173357587E-06
   -0.14409794697805937568E-06
   -0.14474542874778761308E-06
    0.11578579828045034280E-06
   -0.14300107858447543429E-06
    0.11232587731229222256E-05
    0.11207084759633818776E-05
   -0.14184287920992196810E-06
    0.10843632169490292364E-06
   -0.14527392445077364644E-06
   -0.14480227692265308136E-06
    0.10835013759701880629E-06
   -0.14398306867994059222E-06
   -0.14350275804346499961E-06
    0.11326439673418486011E-06
   -0.14300244367751901414E-06
   -0.14404290992898685469E-06
    0.11999253548179743769E-06
   -0.14272975803046206147E-06
    0.11221914843134537026E-05
    0.11180268653109759404E-05
   -0.14037976416757491504E-06
    0.10543141706066941329E-06
   -0.14538386672023086140E-06
   -0.14446067643836792741E-06
    0.10528471170703743613E-06
   -0.14448865251676460948E-06
   -0.14361539619822290152E-06
    0.11476484967729529082E-06
   -0.14093545612066219666E-06
   -0.14292560816570669619E-06
    0.12788622883585771503E-06
   -0.14202483621868682426E-06