# vtk DataFile Version 3.0
LAPLACIEN  2D
ASCII
DATASET UNSTRUCTURED_GRID
 POINTS        1857  float
   3.1250000000000000E-002  0.93750000000000000        0.0000000000000000     
   6.2500000000000000E-002  0.93750000000000000        0.0000000000000000     
   6.2500000000000000E-002  0.96875000000000000        0.0000000000000000     
   1.8749999999999999E-002  0.95625000000000004        0.0000000000000000     
   4.0625000000000001E-002  0.95937499999999998        0.0000000000000000     
   4.3749999999999997E-002  0.98124999999999996        0.0000000000000000     
   2.1874999999999999E-002  0.97812500000000002        0.0000000000000000     
   9.3750000000000000E-002  0.93750000000000000        0.0000000000000000     
  0.12500000000000000       0.93750000000000000        0.0000000000000000     
  0.12500000000000000       0.96875000000000000        0.0000000000000000     
   8.1250000000000003E-002  0.95625000000000004        0.0000000000000000     
  0.10312499999999999       0.95937499999999998        0.0000000000000000     
  0.10625000000000000       0.98124999999999996        0.0000000000000000     
   8.4375000000000006E-002  0.97812500000000002        0.0000000000000000     
   3.1250000000000000E-002  0.87500000000000000        0.0000000000000000     
   6.2500000000000000E-002  0.87500000000000000        0.0000000000000000     
   6.2500000000000000E-002  0.90625000000000000        0.0000000000000000     
   1.8749999999999999E-002  0.89375000000000004        0.0000000000000000     
   4.0625000000000001E-002  0.89687499999999998        0.0000000000000000     
   4.3749999999999997E-002  0.91874999999999996        0.0000000000000000     
   2.1874999999999999E-002  0.91562500000000002        0.0000000000000000     
   9.3750000000000000E-002  0.87500000000000000        0.0000000000000000     
  0.12500000000000000       0.87500000000000000        0.0000000000000000     
  0.12500000000000000       0.90625000000000000        0.0000000000000000     
   8.1250000000000003E-002  0.89375000000000004        0.0000000000000000     
  0.10312499999999999       0.89687499999999998        0.0000000000000000     
  0.10625000000000000       0.91874999999999996        0.0000000000000000     
   8.4375000000000006E-002  0.91562500000000002        0.0000000000000000     
  0.15625000000000000       0.93750000000000000        0.0000000000000000     
  0.18750000000000000       0.93750000000000000        0.0000000000000000     
  0.18750000000000000       0.96875000000000000        0.0000000000000000     
  0.14374999999999999       0.95625000000000004        0.0000000000000000     
  0.16562499999999999       0.95937499999999998        0.0000000000000000     
  0.16875000000000001       0.98124999999999996        0.0000000000000000     
  0.14687500000000001       0.97812500000000002        0.0000000000000000     
  0.21875000000000000       0.93750000000000000        0.0000000000000000     
  0.25000000000000000       0.93750000000000000        0.0000000000000000     
  0.25000000000000000       0.96875000000000000        0.0000000000000000     
  0.20624999999999999       0.95625000000000004        0.0000000000000000     
  0.22812499999999999       0.95937499999999998        0.0000000000000000     
  0.23125000000000001       0.98124999999999996        0.0000000000000000     
  0.20937500000000001       0.97812500000000002        0.0000000000000000     
  0.15625000000000000       0.87500000000000000        0.0000000000000000     
  0.18750000000000000       0.87500000000000000        0.0000000000000000     
  0.18750000000000000       0.90625000000000000        0.0000000000000000     
  0.14374999999999999       0.89375000000000004        0.0000000000000000     
  0.16562499999999999       0.89687499999999998        0.0000000000000000     
  0.16875000000000001       0.91874999999999996        0.0000000000000000     
  0.14687500000000001       0.91562500000000002        0.0000000000000000     
  0.21875000000000000       0.87500000000000000        0.0000000000000000     
  0.25000000000000000       0.87500000000000000        0.0000000000000000     
  0.25000000000000000       0.90625000000000000        0.0000000000000000     
  0.20624999999999999       0.89375000000000004        0.0000000000000000     
  0.22812499999999999       0.89687499999999998        0.0000000000000000     
  0.23125000000000001       0.91874999999999996        0.0000000000000000     
  0.20937500000000001       0.91562500000000002        0.0000000000000000     
   3.1250000000000000E-002  0.81250000000000000        0.0000000000000000     
   6.2500000000000000E-002  0.81250000000000000        0.0000000000000000     
   6.2500000000000000E-002  0.84375000000000000        0.0000000000000000     
   1.8749999999999999E-002  0.83125000000000004        0.0000000000000000     
   4.0625000000000001E-002  0.83437499999999998        0.0000000000000000     
   4.3749999999999997E-002  0.85624999999999996        0.0000000000000000     
   2.1874999999999999E-002  0.85312500000000002        0.0000000000000000     
   9.3750000000000000E-002  0.81250000000000000        0.0000000000000000     
  0.12500000000000000       0.81250000000000000        0.0000000000000000     
  0.12500000000000000       0.84375000000000000        0.0000000000000000     
   8.1250000000000003E-002  0.83125000000000004        0.0000000000000000     
  0.10312499999999999       0.83437499999999998        0.0000000000000000     
  0.10625000000000000       0.85624999999999996        0.0000000000000000     
   8.4375000000000006E-002  0.85312500000000002        0.0000000000000000     
   3.1250000000000000E-002  0.75000000000000000        0.0000000000000000     
   6.2500000000000000E-002  0.75000000000000000        0.0000000000000000     
   6.2500000000000000E-002  0.78125000000000000        0.0000000000000000     
   1.8749999999999999E-002  0.76875000000000004        0.0000000000000000     
   4.0625000000000001E-002  0.77187499999999998        0.0000000000000000     
   4.3749999999999997E-002  0.79374999999999996        0.0000000000000000     
   2.1874999999999999E-002  0.79062500000000002        0.0000000000000000     
   9.3750000000000000E-002  0.75000000000000000        0.0000000000000000     
  0.12500000000000000       0.75000000000000000        0.0000000000000000     
  0.12500000000000000       0.78125000000000000        0.0000000000000000     
   8.1250000000000003E-002  0.76875000000000004        0.0000000000000000     
  0.10312499999999999       0.77187499999999998        0.0000000000000000     
  0.10625000000000000       0.79374999999999996        0.0000000000000000     
   8.4375000000000006E-002  0.79062500000000002        0.0000000000000000     
  0.15625000000000000       0.81250000000000000        0.0000000000000000     
  0.18750000000000000       0.81250000000000000        0.0000000000000000     
  0.18750000000000000       0.84375000000000000        0.0000000000000000     
  0.14374999999999999       0.83125000000000004        0.0000000000000000     
  0.16562499999999999       0.83437499999999998        0.0000000000000000     
  0.16875000000000001       0.85624999999999996        0.0000000000000000     
  0.14687500000000001       0.85312500000000002        0.0000000000000000     
  0.21875000000000000       0.81250000000000000        0.0000000000000000     
  0.25000000000000000       0.81250000000000000        0.0000000000000000     
  0.25000000000000000       0.84375000000000000        0.0000000000000000     
  0.20624999999999999       0.83125000000000004        0.0000000000000000     
  0.22812499999999999       0.83437499999999998        0.0000000000000000     
  0.23125000000000001       0.85624999999999996        0.0000000000000000     
  0.20937500000000001       0.85312500000000002        0.0000000000000000     
  0.15625000000000000       0.75000000000000000        0.0000000000000000     
  0.18750000000000000       0.75000000000000000        0.0000000000000000     
  0.18750000000000000       0.78125000000000000        0.0000000000000000     
  0.14374999999999999       0.76875000000000004        0.0000000000000000     
  0.16562499999999999       0.77187499999999998        0.0000000000000000     
  0.16875000000000001       0.79374999999999996        0.0000000000000000     
  0.14687500000000001       0.79062500000000002        0.0000000000000000     
  0.21875000000000000       0.75000000000000000        0.0000000000000000     
  0.25000000000000000       0.75000000000000000        0.0000000000000000     
  0.25000000000000000       0.78125000000000000        0.0000000000000000     
  0.20624999999999999       0.76875000000000004        0.0000000000000000     
  0.22812499999999999       0.77187499999999998        0.0000000000000000     
  0.23125000000000001       0.79374999999999996        0.0000000000000000     
  0.20937500000000001       0.79062500000000002        0.0000000000000000     
  0.28125000000000000       0.93750000000000000        0.0000000000000000     
  0.31250000000000000       0.93750000000000000        0.0000000000000000     
  0.31250000000000000       0.96875000000000000        0.0000000000000000     
  0.26874999999999999       0.95625000000000004        0.0000000000000000     
  0.29062500000000002       0.95937499999999998        0.0000000000000000     
  0.29375000000000001       0.98124999999999996        0.0000000000000000     
  0.27187499999999998       0.97812500000000002        0.0000000000000000     
  0.34375000000000000       0.93750000000000000        0.0000000000000000     
  0.37500000000000000       0.93750000000000000        0.0000000000000000     
  0.37500000000000000       0.96875000000000000        0.0000000000000000     
  0.33124999999999999       0.95625000000000004        0.0000000000000000     
  0.35312500000000002       0.95937499999999998        0.0000000000000000     
  0.35625000000000001       0.98124999999999996        0.0000000000000000     
[...]
 CELL_DATA        3584
 SCALARS VEGF float
 LOOKUP_TABLE default
    0.40083943168446184944E-08
    0.46398329470222864890E-08
    0.33371521624368305600E-08
    0.34491954755032139251E-08
    0.46978202944794196587E-08
    0.38758179336096793398E-08
    0.51401737035635941520E-08
    0.42665582075023073439E-08
    0.42726950417443677516E-08
    0.44566112020905674237E-08
    0.42437425215430666853E-08
    0.48902001571625970156E-08
    0.44454910279673268508E-08
    0.44739458035863343432E-08
    0.26150693453693477502E-08
    0.32192542909706070162E-08
    0.24883178182718928869E-08
    0.28818101989710072325E-08
    0.38583480860369636130E-08
    0.32901603569261204233E-08
    0.43708763926668414136E-08
    0.34610600386278738455E-08
    0.44121200342778015436E-08
    0.38577790033142864616E-08
    0.40205747888020194858E-08
    0.31325552142765590764E-08
    0.32691119796574333085E-08
    0.32382278216767584864E-08
    0.34653819626933760972E-08
    0.38562795896939645545E-08
    0.28321304323122083223E-08
    0.26669103412228174920E-08
    0.32460056527933350595E-08
    0.25159131829379928701E-08
    0.32431462143525832157E-08
    0.40319974416729921292E-08
    0.37458132879212978991E-08
    0.46203952314035368386E-08
    0.35053863819620414286E-08
    0.41735121373346669167E-08
    0.32688838196813618021E-08
    0.33278664889812889060E-08
    0.33346739778354813060E-08
    0.41624613723637742921E-08
    0.64670513516015059688E-08
    0.65802576328053753659E-08
    0.41227161117785725765E-08
    0.31732664263683397891E-08
    0.25818720217035058874E-08
    0.28146642355006062153E-08
    0.23322835289134204515E-08
    0.24945323527914285026E-08
    0.28142765885525077887E-08
    0.25424171069554940755E-08
    0.25285924045428116026E-08
    0.25389701667287369448E-08
    0.34881920261883019753E-08
    0.44256803503332554260E-08
    0.56576102590023132558E-08
    0.56179052367612363325E-08
    0.49266590780524934730E-08
    0.40393542466860673715E-08
    0.46456545240678329775E-08
    0.35286960499814686802E-08
    0.41453685276943295749E-08
    0.34552244827358883860E-08
    0.39003184057260642534E-08
    0.29460731333564677565E-08
    0.36429026556502874617E-08
    0.36216209216486533834E-08
    0.13658089671604999957E-07
    0.14422520641513242461E-07
    0.25699954623425507384E-07
    0.21482259423038809811E-07
    0.12084101623936990787E-07
    0.87483017294463892395E-08
    0.73665088993241691323E-08
    0.58603040603605870642E-08
    0.53198942560278711227E-08
    0.45520395616888894330E-08
    0.66904869706783469026E-08
    0.69467324337746215157E-08
    0.83481743365600040156E-08
    0.78717897093172251849E-08
    0.21744092580286382586E-07
    0.26280927778966837542E-07
    0.53842599149993496599E-07
    0.50040623856404625814E-07
    0.23608563349466070252E-07
    0.16548453494604186037E-07
    0.78783357686382633114E-08
    0.77939599963065085301E-08
    0.39232930748710526260E-08
    0.40666885278363225911E-08
    0.82906746265949867156E-08
    0.93305692902303395157E-08
    0.13282844238947802973E-07
    0.12863709509954023771E-07
    0.16738716824544745282E-06
    0.17895049324372183172E-06
    0.35189390008154033693E-06
    0.30158749297672967649E-06
    0.14065342138175933828E-06
    0.90836464097670862168E-07
    0.40374191651625741236E-07
    0.42822228706415073191E-07
    0.19433152482002750185E-07
    0.22042825087429594064E-07
    0.54055075369551862997E-07
    0.71136691495013731703E-07
    0.89555446153121507648E-07
    0.82678457131504033274E-07
    0.42255010174827582179E-08
    0.49391549058431593448E-08
    0.55809333721654798468E-08
    0.58528443707378848650E-08
    0.44773993209054059839E-08
    0.34262938733722749818E-08
    0.31067111161916575053E-08
    0.39466480489708516737E-08
    0.33787176483472023193E-08
    0.43821669575456236819E-08
    0.35938116075745124256E-08
    0.44627307191044279460E-08
    0.36731897839447346558E-08
    0.37261231702637521310E-08
    0.16722512036207310275E-07
    0.23665133952620676264E-07
    0.49941409238949355962E-07
    0.53973702430310612648E-07
    0.26268454326596918844E-07
    0.21621545887293621525E-07
    0.94234374243799490173E-08
    0.83329334566346274607E-08
    0.39538873143038807935E-08
    0.41235813853016953196E-08
    0.78195727924981097852E-08
    0.78559465410124804862E-08
    0.12878105404054996615E-07
    0.13321809901730960528E-07
    0.89366287839359870813E-08
    0.12099512821328297250E-07
    0.21447715114956078674E-07
    0.25898385025130000128E-07
    0.14479201426742313936E-07
    0.13603553939660445675E-07
    0.71173868735462364874E-08
    0.67443321940850645937E-08
    0.44841233367939211614E-08
    0.55633895248616900354E-08
    0.59299776288959535771E-08
    0.71866127597592620615E-08
    0.79277171303564439489E-08
    0.84364787165652932829E-08
    0.91012874505577212803E-07
    0.14071316478460154689E-06
    0.30149087161760847991E-06
    0.35202838926108571897E-06
    0.17894339041473234648E-06
    0.16727252080395869896E-06
    0.71240564906678746668E-07
    0.54105719324926379444E-07
    0.21939829116873233838E-07
    0.19640925830324196233E-07
    0.42852878057965456461E-07
    0.40355055774190748237E-07
    0.82697654894509692511E-07
    0.89600015177744420907E-07
    0.19159229230519855702E-06
    0.24837912275520843084E-06
    0.51407925924404704699E-06
    0.51419631491794406562E-06
    0.24834964625482881335E-06
    0.19145664916353362268E-06
    0.82107488795826052189E-07
    0.73554855748265056878E-07
    0.30673480582310620619E-07
    0.30824950874547128754E-07
    0.73539095923921947575E-07
    0.82032562302307412241E-07
    0.13397436351741859814E-06
    0.13398845851232413486E-06
    0.16457707348364496031E-05
    0.18986635200876708148E-05
    0.36657730230086179144E-05
    0.33776052634256867803E-05
    0.16678075982155810805E-05
    0.11859851293797544171E-05
    0.53863377744901104300E-06
    0.53262650450788476303E-06
    0.24114509879190160215E-06
    0.25928110653841148170E-06
    0.60695289368819021299E-06
    0.73726250462702244201E-06
    0.10267933171279899209E-05
    0.98392298068791478628E-06
    0.11861230270297668072E-05
    0.16678400924400388048E-05
    0.33774902889680347634E-05
    0.36658929513136286361E-05
    0.18986393034261391781E-05
    0.16456429900777633993E-05
    0.73734850292709014777E-06
    0.60697719642362875095E-06
    0.25913981204602600616E-06
    0.24130446199338621758E-06
    0.53261597508394035449E-06
    0.53856222772780046519E-06
    0.98391373304911495672E-06
    0.10268130604470514994E-05
    0.11097909994363039715E-04
    0.13988774464752278250E-04
    0.26487572269962194254E-04
    0.26487691596938191588E-04
    0.13988748442853139807E-04
    0.11097782213483466533E-04
    0.52827630111942587755E-05
    0.48265809920734167496E-05
    0.22475094118780216680E-05
    0.22476585643422378686E-05
    0.48265616323329502612E-05
    0.52826795773227070330E-05
    0.82433226243277291529E-05
    0.82433377356987764579E-05
    0.62435993994619615729E-07
    0.56807795941921772508E-07
    0.10308669669621298467E-06
    0.78249369232684903694E-07
    0.38591206896763512960E-07
    0.24979492542807054660E-07
    0.17572442382323767908E-07
    0.15635431775496547213E-07
    0.11077862290956986040E-07
    0.10475277954011013273E-07
    0.20263142248613904078E-07
    0.27816451099083711122E-07
    0.28639088563090887740E-07
    0.25430378272956937807E-07
    0.21282933557082305074E-06
    0.17243364569498346917E-06
    0.29347555761431803801E-06
    0.20756228844627715073E-06
    0.10118280256078591499E-06
    0.60573929708529538465E-07
    0.41923829695879084499E-07
    0.41610781652036447750E-07
    0.28280049240270849633E-07
    0.29463725441722619664E-07
    0.61980343662065505549E-07
    0.96668498773442892594E-07
    0.84630465724364977515E-07
    0.71830000988016077580E-07
    0.90014776357834118766E-06
    0.85571217492816306220E-06
    0.15584219327758312734E-05
    0.12407240150085597060E-05
    0.59217227389505582560E-06
    0.35615306431542010768E-06
    0.16531419095867246694E-06
    0.19332743907960603468E-06
    0.93789529371470263029E-07
    0.11496472966666177479E-06
    0.28046762788893703439E-06
    0.40195311291240693234E-06
    0.43052740072702867719E-06
    0.38143376011253454983E-06
    0.32529387719272824888E-05
    0.27672285549680417480E-05
    0.46250959285490023226E-05
    0.34440746307531349664E-05
    0.16926051570565119953E-05
    0.95458070282183098485E-06
    0.47134591301569519584E-06
    0.60726583284370593985E-06
    0.32355041287862835590E-06
    0.42440705793428680858E-06
    0.10021140395301603621E-05
    0.15406264680025720134E-05
    0.14044405606476458530E-05
    0.11977392424200316016E-05
    0.50208042013650681882E-06
    0.36686125678144273343E-06
    0.57379700394390900259E-06
    0.38148080138903719607E-06
    0.18946305130725474988E-06
    0.10652680039326678372E-06
    0.76938410276917479242E-07
    0.84155993690008196484E-07
    0.60589041496189098621E-07
    0.67966518921700464210E-07
    0.14269324509862360093E-06
    0.24017967356012658495E-06
    0.18013931455481144767E-06
    0.14715231679338222569E-06
    0.81024711333813311950E-06
    0.53770817459071321598E-06
    0.76572234644042133585E-06
    0.48062298679345202924E-06
    0.24561380348930469378E-06
    0.13066557123207336164E-06
    0.10036996173279065790E-06
    0.12021591463458930362E-06
    0.94457720336850035713E-07
    0.11276504438452863735E-06
    0.23056034316751055390E-06
    0.41219388894279617186E-06
    0.26610685413323962093E-06
    0.20979889993814549119E-06
    0.78995303796552559080E-05
    0.60561604519909602919E-05
    0.92383252377807857468E-05
    0.64664685964242998232E-05
    0.32798098299515317201E-05
    0.17421145520494998334E-05
    0.91957836433257216161E-06
    0.13021744128520439245E-05
    0.76651585667755437326E-06
    0.10706966703062332902E-05
    0.24341844001716030279E-05
    0.39855662739172582849E-05
    0.31054066166927173271E-05
    0.25539342869778714627E-05
    0.12942946106049585685E-04
    0.89926306980026904559E-05
    0.12447350528270256597E-04
    0.82143186550506117830E-05
    0.43085424245150553952E-05
    0.21614246521887272273E-05
    0.12235938889747003822E-05
    0.19018757180148105424E-05
    0.12404287988338576456E-05
    0.18397765273708223708E-05
    0.40211623628959484466E-05
    0.69809282228756868396E-05
    0.46624667478698041692E-05
    0.37010084622874306825E-05
    0.95606222521780304764E-05
    0.97461557568522430263E-05
    0.17349985024167832590E-04
    0.14740745355656531478E-04
    0.74771576814826735445E-05
    0.49175107387986890939E-05
    0.23847212149132428578E-05
    0.26192998286652595381E-05
    0.13058108416872301211E-05
    0.15105671494911678709E-05
    0.34238315486866267490E-05
    0.45181001074175081074E-05
    0.52856015713409296327E-05
    0.48511029544470550337E-05
    0.36487902146032341448E-04
    0.32967388305325378292E-04
    0.53648196718835338900E-04
    0.42392199039060966088E-04
    0.22173676356410873002E-04
    0.13599037685050370465E-04
    0.70622652522290621377E-05
    0.85865877583916942289E-05
    0.47383144220725484011E-05
    0.58807854686308869716E-05
    0.12847566348999093082E-04
    0.18322579363420826633E-04
    0.17996956480319611276E-04
    0.15858943181947026611E-04
    0.71499804249142978195E-04
    0.79266160861602748136E-04
    0.13875491076710040226E-03
    0.12646523249921671366E-03
    0.68268722921835246049E-04
    0.49347013405856008695E-04
    0.25105783283888211311E-04
    0.25713478671877782557E-04
    0.13185004519751912793E-04
    0.14267431222663309748E-04
    0.29809195981215050347E-04
    0.35730582312451321966E-04
    0.46464217301430953155E-04
    0.44313197650579856830E-04
    0.29795305418938572428E-03
    0.28720466882678437120E-03
    0.45619495884539310211E-03
    0.38245684536986540364E-03
    0.21296694163206421270E-03
    0.14205803608746531944E-03
    0.77661603427731055603E-04
    0.88913914613272102190E-04
    0.50700267220443498667E-04
    0.59389135117283244113E-04
    0.12003251111450348237E-03
    0.15807257310749645105E-03
    0.16856626525110109788E-03
    0.15347520567906083617E-03
    0.91343946387805046729E-04
    0.73959497704650511030E-04
    0.10951155396619227005E-03
    0.81130099844008716006E-04
    0.43868000181873444783E-04
    0.25249214601505180972E-04
    0.14066150963421153458E-04
    0.18853348687959813355E-04
    0.11538242986270155009E-04
    0.15285415647465945961E-04
    0.32092721046950462992E-04
    0.49016617894717291206E-04
    0.40774279693925883413E-04
    0.34600825018601342456E-04
    0.15203575411158677839E-03
    0.11117291045292744447E-03
    0.14899538695870996716E-03
    0.10385840066328897151E-03
    0.58192308382566615367E-04
    0.31538676910553585574E-04
    0.18896353106983960031E-04
    0.27874854914392968504E-04
    0.18950972514398570868E-04
    0.26703748886397537453E-04
    0.53818989792046615056E-04
    0.87486636160149280341E-04
    0.61987842122696555636E-04
    0.50723907806465222230E-04
    0.77335873675791534133E-03
    0.66213267924530589802E-03
    0.94932654434590928779E-03
    0.74567602368231210037E-03
    0.43081350651191259579E-03
    0.26882011307031175801E-03
    0.15818868731193858859E-03
    0.20053453380498148777E-03
    0.12743584514944669879E-03
    0.16014682916192603040E-03
    0.31061214719008904250E-03
    0.44195609781757583864E-03
    0.39304369280589168678E-03
    0.34394825602168329921E-03
    0.12999912654836889760E-02
    0.10044365250260044869E-02
    0.12986242804885160529E-02
    0.96014706343542765427E-03
    0.57677330313508510997E-03
    0.33809213447679587047E-03
    0.21464011909335916207E-03
    0.30029141486525868501E-03
    0.21266434986189227362E-03
    0.28479662898781558282E-03
    0.52874598271875398146E-03
    0.80259609401934670862E-03
    0.60464705815372146204E-03
    0.51005895300946656364E-03
    0.25168169271652381586E-07
    0.38607103988212983594E-07
    0.78215212892261929804E-07
    0.10328565034245378291E-06
    0.56865345456906943314E-07
    0.62382779555681078299E-07
    0.27988980993423325763E-07
    0.20318384604638425742E-07
    0.10409033848344709822E-07
    0.11322616746128350671E-07
    0.15705917832730966501E-07
    0.17393056164953002996E-07
    0.25487069296070504085E-07
    0.28728295289772200303E-07
    0.35632983206735938311E-06
    0.59223249655302225736E-06
    0.12406277149669166752E-05
    0.15585567619120075255E-05
    0.85570589398127857222E-06
    0.90003439555374546125E-06
    0.40205896395360619459E-06
    0.28051975546628627526E-06
    0.11486352587120946409E-06
    0.93998639079417776947E-07
    0.19335894337667781104E-06
    0.16529558246693039862E-06
    0.38145374757060385518E-06
    0.43057290245503537907E-06
    0.60762649591856248401E-07
    0.10119876757851887768E-06
    0.20752819738075007505E-06
    0.29367459608751195459E-06
    0.17249132506151449085E-06
    0.21277632353533904289E-06
    0.96841323700473199288E-07
    0.62035800439954619890E-07
    0.29397737600974854190E-07
    0.28524990973563502278E-07
    0.41681383444292994865E-07
    0.41744508322254217073E-07
    0.71886800553479520900E-07
    0.84719804601300811838E-07
    0.95475757838878135628E-06
    0.16926655642352637496E-05
    0.34439786722625439030E-05
    0.46252310174895083425E-05
    0.27672224519609217910E-05
    0.32528254394097590340E-05
    0.15407325562370009442E-05
    0.10021663838863920687E-05
    0.42430611978033960724E-06
    0.32375972424475545086E-06
    0.60729748212577853279E-06
    0.47132739978937712244E-06
    0.11977593932246824457E-05
    0.14044862353687873451E-05
    0.49176481248890591388E-05
    0.74771888752042752795E-05
    0.14740626754787813712E-04
    0.17350099308679106701E-04
    0.97461296248479761719E-05
    0.95604933132811598567E-05
    0.45181872103780157480E-05
    0.34238566637767855138E-05
    0.15104274486833681958E-05
    0.13059713891411651842E-05
    0.26192896854348436530E-05
    0.23846498206351695635E-05
    0.48510934135170032387E-05
    0.52856210116550943675E-05
    0.49347116460504963486E-04
    0.68268709450061446455E-04
    0.12646502373959839769E-03
    0.13875494009358101794E-03
    0.79266099890484131981E-04
    0.71499664095887874239E-04
    0.35730662470679358934E-04
    0.29809208335629277966E-04
    0.14267280172645819674E-04
    0.13185151056173998249E-04
    0.25713449944335380222E-04
    0.25105689863243181679E-04
    0.44313163323922312561E-04
    0.46464214231833378171E-04
    0.13599175827919286386E-04
    0.22173707595076745956E-04
    0.42392079980818127987E-04
    0.53648303463571727441E-04
    0.32967357037720384139E-04
    0.36487762039934407696E-04
    0.18322662081718434622E-04
    0.12847589617353633246E-04
    0.58806451746056919160E-05
    0.47384747865517448168E-05
    0.85865774577319482194E-05
    0.70621941435984426981E-05
    0.15858932860653029458E-04
    0.17996974214876855784E-04
    0.14205809882116503771E-03
    0.21296680298589219555E-03
    0.38245631812491002631E-03
    0.45619440375569076307E-03
    0.28720431088541978045E-03
    0.29795256773641249802E-03
    0.15807251943112491667E-03
    0.12003244134569395114E-03
    0.59388953561203069878E-04
    0.50700393842648149891E-04
    0.88913848592901033796E-04
    0.77661492321925496615E-04
    0.15347507951955408523E-03
    0.16856614027128599947E-03
    0.10671552573061917250E-06
    0.18947903315794963448E-06
    0.38144673716035242915E-06
    0.57399608865200311000E-06
    0.36691898172095989049E-06
    0.50202747526658408740E-06
    0.24035255307945460354E-06
    0.14274873563397474798E-06
    0.67900561615122859621E-07
    0.60834005057052505285E-07
    0.84226611563603291069E-07
    0.76759097088243681150E-07
    0.14720913798368384505E-06
    0.18022868174415359565E-06
    0.17422915532129334832E-05
    0.32798705744186696634E-05
    0.64663733537975228588E-05
    0.92384613913344949642E-05
    0.60561551288414234681E-05
    0.78994180456656080649E-05
    0.39856728430020681078E-05
    0.24342370408916224830E-05
    0.10705958514694767482E-05
    0.76672525454827979447E-06
    0.13022062016444423022E-05
    0.91955992232695264477E-06
    0.25539547294581635339E-05
    0.31054526723351552763E-05
    0.13085429322336080718E-06
    0.24562978425560608233E-06
    0.48058892687442394057E-06
    0.76592144891086961554E-06
    0.53776591317472857828E-06
    0.81019420329080433469E-06
    0.41236679043217974975E-06
    0.23061584066606161232E-06
    0.11269909167186622416E-06
    0.94702685500974162392E-07
    0.12028652995389553291E-06
    0.10019064664700160361E-06
    0.20985572210750202756E-06
    0.26619622597953204051E-06
    0.21616017397851718432E-05
    0.43086033897742220347E-05
    0.82142239276270848894E-05
    0.12447487660920222060E-04
    0.89926260831921341272E-05
    0.12942834896392176616E-04
    0.69810354869715373992E-05
    0.40212153244318087509E-05
    0.18396758266949758353E-05
    0.12406382576662560001E-05
    0.19019075968955465243E-05
    0.12235754892548696165E-05
    0.37010291192615799488E-05
    0.46625131203118266968E-05
    0.25249354972027231007E-04
    0.43868035052596141411E-04
    0.81129983920869911383E-04
    0.10951165878425047446E-03
    0.73959469976042581298E-04
    0.91343805504478936953E-04
    0.49016702241738649437E-04
    0.32092747188529415793E-04
    0.15285276688857914922E-04
    0.11538404670686219224E-04
    0.18853340770423158030E-04
    0.14066081422802245702E-04
    0.34600818590903125024E-04
    0.40774301544323927340E-04
    0.26882011034465817930E-03
    0.43081319102704411462E-03
    0.74567502471805182946E-03
    0.94932520396962308783E-03
    0.66213185465251113600E-03
    0.77335739717794300258E-03
    0.44195570485193306533E-03
    0.31061194540338358779E-03
    0.16014661102676196452E-03
    0.12743596032733334970E-03
    0.20053443692996834945E-03
    0.15818856015418773417E-03
    0.34394802087622024797E-03