# vtk DataFile Version 3.0
LAPLACIEN  2D
ASCII
DATASET UNSTRUCTURED_GRID
 POINTS        1857  float
   3.1250000000000000E-002  0.93750000000000000        0.0000000000000000     
   6.2500000000000000E-002  0.93750000000000000        0.0000000000000000     
   6.2500000000000000E-002  0.96875000000000000        0.0000000000000000     
   1.8749999999999999E-002  0.95625000000000004        0.0000000000000000     
   4.0625000000000001E-002  0.95937499999999998        0.0000000000000000     
   4.3749999999999997E-002  0.98124999999999996        0.0000000000000000     
   2.1874999999999999E-002  0.97812500000000002        0.0000000000000000     
   9.3750000000000000E-002  0.93750000000000000        0.0000000000000000     
  0.12500000000000000       0.93750000000000000        0.0000000000000000     
  0.12500000000000000       0.96875000000000000        0.0000000000000000     
   8.1250000000000003E-002  0.95625000000000004        0.0000000000000000     
  0.10312499999999999       0.95937499999999998        0.0000000000000000     
  0.10625000000000000       0.98124999999999996        0.0000000000000000     
   8.4375000000000006E-002  0.97812500000000002        0.0000000000000000     
   3.1250000000000000E-002  0.87500000000000000        0.0000000000000000     
   6.2500000000000000E-002  0.87500000000000000        0.0000000000000000     
   6.2500000000000000E-002  0.90625000000000000        0.0000000000000000     
   1.8749999999999999E-002  0.89375000000000004        0.0000000000000000     
   4.0625000000000001E-002  0.89687499999999998        0.0000000000000000     
   4.3749999999999997E-002  0.91874999999999996        0.0000000000000000     
   2.1874999999999999E-002  0.91562500000000002        0.0000000000000000     
   9.3750000000000000E-002  0.87500000000000000        0.0000000000000000     
  0.12500000000000000       0.87500000000000000        0.0000000000000000     
  0.12500000000000000       0.90625000000000000        0.0000000000000000     
   8.1250000000000003E-002  0.89375000000000004        0.0000000000000000     
  0.10312499999999999       0.89687499999999998        0.0000000000000000     
  0.10625000000000000       0.91874999999999996        0.0000000000000000     
   8.4375000000000006E-002  0.91562500000000002        0.0000000000000000     
  0.15625000000000000       0.93750000000000000        0.0000000000000000     
  0.18750000000000000       0.93750000000000000        0.0000000000000000     
  0.18750000000000000       0.96875000000000000        0.0000000000000000     
  0.14374999999999999       0.95625000000000004        0.0000000000000000     
  0.16562499999999999       0.95937499999999998        0.0000000000000000     
  0.16875000000000001       0.98124999999999996        0.0000000000000000     
  0.14687500000000001       0.97812500000000002        0.0000000000000000     
  0.21875000000000000       0.93750000000000000        0.0000000000000000     
  0.25000000000000000       0.93750000000000000        0.0000000000000000     
  0.25000000000000000       0.96875000000000000        0.0000000000000000     
  0.20624999999999999       0.95625000000000004        0.0000000000000000     
  0.22812499999999999       0.95937499999999998        0.0000000000000000     
  0.23125000000000001       0.98124999999999996        0.0000000000000000     
  0.20937500000000001       0.97812500000000002        0.0000000000000000     
  0.15625000000000000       0.87500000000000000        0.0000000000000000     
  0.18750000000000000       0.87500000000000000        0.0000000000000000     
  0.18750000000000000       0.90625000000000000        0.0000000000000000     
  0.14374999999999999       0.89375000000000004        0.0000000000000000     
  0.16562499999999999       0.89687499999999998        0.0000000000000000     
  0.16875000000000001       0.91874999999999996        0.0000000000000000     
  0.14687500000000001       0.91562500000000002        0.0000000000000000     
  0.21875000000000000       0.87500000000000000        0.0000000000000000     
  0.25000000000000000       0.87500000000000000        0.0000000000000000     
  0.25000000000000000       0.90625000000000000        0.0000000000000000     
  0.20624999999999999       0.89375000000000004        0.0000000000000000     
  0.22812499999999999       0.89687499999999998        0.0000000000000000     
  0.23125000000000001       0.91874999999999996        0.0000000000000000     
  0.20937500000000001       0.91562500000000002        0.0000000000000000     
   3.1250000000000000E-002  0.81250000000000000        0.0000000000000000     
   6.2500000000000000E-002  0.81250000000000000        0.0000000000000000     
   6.2500000000000000E-002  0.84375000000000000        0.0000000000000000     
   1.8749999999999999E-002  0.83125000000000004        0.0000000000000000     
   4.0625000000000001E-002  0.83437499999999998        0.0000000000000000     
   4.3749999999999997E-002  0.85624999999999996        0.0000000000000000     
   2.1874999999999999E-002  0.85312500000000002        0.0000000000000000     
   9.3750000000000000E-002  0.81250000000000000        0.0000000000000000     
  0.12500000000000000       0.81250000000000000        0.0000000000000000     
  0.12500000000000000       0.84375000000000000        0.0000000000000000     
   8.1250000000000003E-002  0.83125000000000004        0.0000000000000000     
  0.10312499999999999       0.83437499999999998        0.0000000000000000     
  0.10625000000000000       0.85624999999999996        0.0000000000000000     
   8.4375000000000006E-002  0.85312500000000002        0.0000000000000000     
   3.1250000000000000E-002  0.75000000000000000        0.0000000000000000     
   6.2500000000000000E-002  0.75000000000000000        0.0000000000000000     
   6.2500000000000000E-002  0.78125000000000000        0.0000000000000000     
   1.8749999999999999E-002  0.76875000000000004        0.0000000000000000     
   4.0625000000000001E-002  0.77187499999999998        0.0000000000000000     
   4.3749999999999997E-002  0.79374999999999996        0.0000000000000000     
   2.1874999999999999E-002  0.79062500000000002        0.0000000000000000     
   9.3750000000000000E-002  0.75000000000000000        0.0000000000000000     
  0.12500000000000000       0.75000000000000000        0.0000000000000000     
  0.12500000000000000       0.78125000000000000        0.0000000000000000     
   8.1250000000000003E-002  0.76875000000000004        0.0000000000000000     
  0.10312499999999999       0.77187499999999998        0.0000000000000000     
  0.10625000000000000       0.79374999999999996        0.0000000000000000     
   8.4375000000000006E-002  0.79062500000000002        0.0000000000000000     
  0.15625000000000000       0.81250000000000000        0.0000000000000000     
  0.18750000000000000       0.81250000000000000        0.0000000000000000     
  0.18750000000000000       0.84375000000000000        0.0000000000000000     
  0.14374999999999999       0.83125000000000004        0.0000000000000000     
  0.16562499999999999       0.83437499999999998        0.0000000000000000     
  0.16875000000000001       0.85624999999999996        0.0000000000000000     
  0.14687500000000001       0.85312500000000002        0.0000000000000000     
  0.21875000000000000       0.81250000000000000        0.0000000000000000     
  0.25000000000000000       0.81250000000000000        0.0000000000000000     
  0.25000000000000000       0.84375000000000000        0.0000000000000000     
  0.20624999999999999       0.83125000000000004        0.0000000000000000     
  0.22812499999999999       0.83437499999999998        0.0000000000000000     
  0.23125000000000001       0.85624999999999996        0.0000000000000000     
  0.20937500000000001       0.85312500000000002        0.0000000000000000     
  0.15625000000000000       0.75000000000000000        0.0000000000000000     
  0.18750000000000000       0.75000000000000000        0.0000000000000000     
  0.18750000000000000       0.78125000000000000        0.0000000000000000     
  0.14374999999999999       0.76875000000000004        0.0000000000000000     
  0.16562499999999999       0.77187499999999998        0.0000000000000000     
  0.16875000000000001       0.79374999999999996        0.0000000000000000     
  0.14687500000000001       0.79062500000000002        0.0000000000000000     
  0.21875000000000000       0.75000000000000000        0.0000000000000000     
  0.25000000000000000       0.75000000000000000        0.0000000000000000     
  0.25000000000000000       0.78125000000000000        0.0000000000000000     
  0.20624999999999999       0.76875000000000004        0.0000000000000000     
  0.22812499999999999       0.77187499999999998        0.0000000000000000     
  0.23125000000000001       0.79374999999999996        0.0000000000000000     
  0.20937500000000001       0.79062500000000002        0.0000000000000000     
  0.28125000000000000       0.93750000000000000        0.0000000000000000     
  0.31250000000000000       0.93750000000000000        0.0000000000000000     
  0.31250000000000000       0.96875000000000000        0.0000000000000000     
  0.26874999999999999       0.95625000000000004        0.0000000000000000     
  0.29062500000000002       0.95937499999999998        0.0000000000000000     
  0.29375000000000001       0.98124999999999996        0.0000000000000000     
  0.27187499999999998       0.97812500000000002        0.0000000000000000     
  0.34375000000000000       0.93750000000000000        0.0000000000000000     
  0.37500000000000000       0.93750000000000000        0.0000000000000000     
  0.37500000000000000       0.96875000000000000        0.0000000000000000     
  0.33124999999999999       0.95625000000000004        0.0000000000000000     
  0.35312500000000002       0.95937499999999998        0.0000000000000000     
  0.35625000000000001       0.98124999999999996        0.0000000000000000     
[...]
 CELL_DATA        3584
 SCALARS VEGF float
 LOOKUP_TABLE default
    0.31989336259962771674E-08
    0.38305512506612437948E-08
    0.24886335918490563641E-08
    0.26053342245036273609E-08
    0.38916906847717257383E-08
    0.30625856053018539568E-08
    0.43837752537054730847E-08
    0.34752691829637072795E-08
    0.35050370451805306125E-08
    0.36957847329227897644E-08
    0.34534386481887639739E-08
    0.41257415257498416377E-08
    0.36280389750308810296E-08
    0.36573439217113483816E-08
    0.16574914509832338996E-08
    0.22442645097227115774E-08
    0.12740962455123578398E-08
    0.17053395508427761598E-08
    0.29153885586341362077E-08
    0.23800490821266688464E-08
    0.35700374561321564633E-08
    0.26333294791368963851E-08
    0.36271145195913899133E-08
    0.30433199096332951224E-08
    0.31844771344959028019E-08
    0.22650024823922280657E-08
    0.23743079308280854708E-08
    0.23494400817499229715E-08
    0.25589671326549541938E-08
    0.29101972057854050954E-08
    0.16506606297313558074E-08
    0.14572259211419775995E-08
    0.22735590488562303409E-08
    0.15585930080730547006E-08
    0.23791784026565273000E-08
    0.31950183140477778401E-08
    0.29290346544431117387E-08
    0.38462289766671874334E-08
    0.26807398261769100268E-08
    0.33654413616838441874E-08
    0.23799683241141407313E-08
    0.24342222834136471254E-08
    0.81708994337008680220E-09
    0.10855038207579924162E-08
    0.50077114939064755117E-09
    0.61889715183280757969E-09
    0.10484105622830454921E-08
    0.65633363907231387130E-09
    0.11178348160298980756E-08
    0.14413342614622418883E-08
    0.13004157244916793414E-08
    0.14708084475074685850E-08
    0.14425487817842845102E-08
    0.10748514234690230043E-08
    0.57746027693421842334E-09
    0.58853123584047635616E-09
    0.11781918360002146453E-08
    0.19588310024473063368E-08
    0.12189627536915823192E-08
    0.16780057709882321140E-08
    0.27695958745160074817E-08
    0.22682290028861053549E-08
    0.33855961695199884059E-08
    0.23446092236222425885E-08
    0.31997007931458952836E-08
    0.24972840032172936775E-08
    0.26860401413698741301E-08
    0.15682621728268110262E-08
    0.20520726056785261759E-08
    0.20780125099189476290E-08
    0.17492259034253597793E-08
    0.25513093694716473152E-08
    0.26871814531785943941E-08
    0.27711268937631110882E-08
    0.31674608507345264593E-08
    0.24899599954861183612E-08
    0.34740915581143610043E-08
    0.23979631493721418225E-08
    0.31649988207861187940E-08
    0.24350731047900847482E-08
    0.27337387486243177085E-08
    0.16615174580792902612E-08
    0.22529792190389741705E-08
    0.22543531604774021105E-08
    0.15607190711864420652E-08
    0.23661895170789866222E-08
    0.43892571380602216319E-08
    0.41546956771763734039E-08
    0.22674958535963722311E-08
    0.14068976484309943499E-08
    0.11995513334099575583E-08
    0.13674834066547862788E-08
    0.84091403193397774769E-09
    0.83078405636816269872E-09
    0.11450624047156122399E-08
    0.66870048340064376916E-09
    0.87484494240322327424E-09
    0.91248122976237048571E-09
    0.17637142145843366986E-07
    0.19622472216379039958E-07
    0.43048975088593200084E-07
    0.35572794787001536029E-07
    0.14959017787562063180E-07
    0.87170469251702454065E-08
    0.38987558612972703022E-08
    0.42776927482949433446E-08
    0.18560503632831592267E-08
    0.20299616895681490297E-08
    0.50897186776086204258E-08
    0.63485382483618295324E-08
    0.83149133762552486720E-08
    0.75933276463394676621E-08
    0.24571791550048663522E-08
    0.27780596226506715106E-08
    0.16351207216398772275E-08
    0.14178075802006713921E-08
    0.20122112756184494595E-08
    0.11157572700989795222E-08
    0.17319016874226033013E-08
    0.27308188068977192474E-08
    0.24180298005208542405E-08
    0.34466886621387276303E-08
    0.24119767273958434125E-08
    0.31945422379116242043E-08
    0.21285778668709638522E-08
    0.21356027693868144050E-08
    0.15794021271280042238E-08
    0.23204845141972516000E-08
    0.40496390048755693922E-08
    0.45243369828142428764E-08
    0.23554605995252469628E-08
    0.14380082169332055571E-08
    0.76447055406309867576E-09
    0.11849516489364010729E-08
    0.70918907995968564145E-09
    0.10485478861601485724E-08
    0.13937941300369311280E-08
    0.11727053889838757382E-08
    0.92526560753162639937E-09
    0.91360731112856275457E-09
    0.26806120108997363154E-08
    0.31782878288331060740E-08
    0.27301666266255439611E-08
    0.28886473506351857168E-08
    0.26089542948164887154E-08
    0.16933413030451676807E-08
    0.18342964372326261357E-08
    0.27852125313079752501E-08
    0.23635514764119884404E-08
    0.34178745438301405736E-08
    0.24691944997229867439E-08
    0.32854875749435366996E-08
    0.23086017534754735928E-08
    0.23408769330158517713E-08
    0.88914261768069013894E-08
    0.15014633238687063200E-07
    0.35469856961868955740E-07
    0.43186911875457258305E-07
    0.19616422039784522719E-07
    0.17521523516109218329E-07
    0.64544311737744491786E-08
    0.51371646061796929475E-08
    0.19173084640935919833E-08
    0.20703583213933773000E-08
    0.43083447739571948105E-08
    0.38745855966663854107E-08
    0.76102366938952972279E-08
    0.83585639833228664936E-08
    0.20711559429622934805E-07
    0.28910249673886117162E-07
    0.67668645489018012502E-07
    0.67790599690875252669E-07
    0.28883439759598923131E-07
    0.20576657130189069285E-07
    0.75579443559510832964E-08
    0.69268104949397024849E-08
    0.22213737313369029773E-08
    0.23808305824755708720E-08
    0.69125156462014905591E-08
    0.74791784360735277922E-08
    0.13287651037540668167E-07
    0.13302459646404726348E-07
    0.27649483385901159950E-06
    0.33047609451768610028E-06
    0.72067283421055626133E-06
    0.65087004561140697172E-06
    0.28341746152949875208E-06
    0.18646288781565509533E-06
    0.73064015161491595756E-07
    0.72233510463053132194E-07
    0.27502190326088164602E-07
    0.30193619303645555349E-07
    0.84233851420494829732E-07
    0.10635080332534868752E-06
    0.15723550522630734813E-06
    0.14912832393174359140E-06
    0.18659979245934814100E-06
    0.28344701771252384298E-06
    0.65075028856893843806E-06
    0.72079769401691762544E-06
    0.33045405143394840101E-06
    0.27636707364424638003E-06
    0.10643977141506640213E-06
    0.84255902667615260916E-07
    0.30043479484530278693E-07
    0.27668740449221548880E-07
    0.72223810549119268110E-07
    0.72988132036293542543E-07
    0.14911780601048598662E-06
    0.15725535306522645797E-06
    0.27269421714751548570E-05
    0.36162731718651884470E-05
    0.76669466012369102243E-05
    0.76670692776181791262E-05
    0.36162484336828314076E-05
    0.27268125086775640369E-05
    0.11318821637957979420E-05
    0.10145031227384950796E-05
    0.40477358112032247025E-06
    0.40493083267549910149E-06
    0.10144856825572775150E-05
    0.11317960871549648929E-05
    0.19151518511554269835E-05
    0.19151674143046951740E-05
    0.61856417497294779146E-08
    0.63250827929276598427E-08
    0.10596872107420218181E-07
    0.81381268318383229283E-08
    0.52963055900613766825E-08
    0.36005872017250332708E-08
    0.40709868101359399759E-08
    0.29845570304093858347E-08
    0.34534362846029995381E-08
    0.27447409516166029821E-08
    0.36530744320225812604E-08
    0.32395678828934420878E-08
    0.37774788649979575651E-08
    0.35122078545219581293E-08
    0.24217817539393313919E-07
    0.19580498594466261712E-07
    0.35342061379530412678E-07
    0.23469444558368558311E-07
    0.11621610777313426672E-07
    0.66362656355747726232E-08
    0.58678945109167329642E-08
    0.49962874289555221923E-08
    0.46102090238760472965E-08
    0.41090946552117872695E-08
    0.73985731406102106721E-08
    0.10185770835626069194E-07
    0.92199991163474303731E-08
    0.77788948698625786120E-08
    0.13392817145917919924E-06
    0.12672394926766613432E-06
    0.25937963770774075207E-06
    0.19509452867002298911E-06
    0.81983044750163494411E-07
    0.44067090244732338446E-07
    0.18196767832897061821E-07
    0.21985109885230182230E-07
    0.92927322702806578358E-08
    0.11759921755633437255E-07
    0.33527820879617116626E-07
    0.51101421067483294228E-07
    0.55263737669464788331E-07
    0.47583441888799931720E-07
    0.62966490662192520359E-06
    0.51931168102757745310E-06
    0.96460006821157684296E-06
    0.66837996770394917015E-06
    0.28932856531007853236E-06
    0.14426128932243567775E-06
    0.62601855974592810750E-07
    0.84978320859772949214E-07
    0.39506161707319215121E-07
    0.54950316274738928757E-07
    0.15349866454178796432E-06
    0.25691551520620877808E-06
    0.22981150386815719835E-06
    0.18871967093733704136E-06
    0.66645348501735192449E-07
    0.46264308009117689751E-07
    0.78354731691553239898E-07
    0.47530175758756419859E-07
    0.22040371520690869323E-07
    0.11178835198645487567E-07
    0.88880290492588909135E-08
    0.89166624327272152733E-08
    0.72413759656149829211E-08
    0.75015883486385320920E-08
    0.16243440842811761770E-07
    0.27982569243519201040E-07
    0.20353225544272060734E-07
    0.16023850818860105589E-07
    0.11797963368081355132E-06
    0.72371573818621510731E-07
    0.11054941493957636480E-06
    0.62406515092083994223E-07
    0.29192079302003684306E-07
    0.13749963949616600095E-07
    0.11079614820347579562E-07
    0.12585624532454595529E-07
    0.10349598952618384385E-07
    0.12000781349725556373E-07
    0.27177013201143491175E-07
    0.52318040661053892047E-07
    0.31521480570741919452E-07
    0.23610844961906611283E-07
    0.18371304761419726413E-05
    0.13343263120637932542E-05
    0.22264211578704012783E-05
    0.14310984722322446942E-05
    0.64144203540425084358E-06
    0.29822892342915702665E-06
    0.13921545195857939209E-06
    0.21195144327184358641E-06
    0.11068920945385795797E-06
    0.16662941223310975533E-06
    0.44654505370512278072E-06
    0.80543843534043294943E-06
    0.59842454333660469601E-06
    0.47013924907133507862E-06
    0.33351670305058018060E-05
    0.21492552443081118040E-05
    0.31915708587820443705E-05
    0.19116650407608474228E-05
    0.88940406782774382934E-06
    0.38704052561378231030E-06
    0.19590203808706911901E-06
    0.33377381021419298721E-06
    0.19715121815080755877E-06
    0.31937562766368849431E-06
    0.81780508742957970198E-06
    0.15786169220211376957E-05
    0.97680966677822721947E-06
    0.73505964947596900508E-06
    0.22838793279930660142E-05
    0.23475835227128797891E-05
    0.46621853696529088671E-05
    0.38152347472126741567E-05
    0.17181651519545940863E-05
    0.10337720318642942419E-05
    0.43765343356872631349E-06
    0.48955739722662184368E-06
    0.21055120632275869842E-06
    0.25164729439270272309E-06
    0.67121305939054176430E-06
    0.93674487421678316149E-06
    0.11278962117786529847E-05
    0.10153230711826088534E-05
    0.11390574006563100503E-04
    0.10132789101163788172E-04
    0.18135526509509593409E-04
    0.13604953456190622976E-04
    0.63575127843660422279E-05
    0.35280852880599285762E-05
    0.16185885930217741151E-05
    0.20448632382826755952E-05
    0.99238114352890993782E-06
    0.12899358096095224863E-05
    0.32858874938684179972E-05
    0.50138086408334365510E-05
    0.49229255668050596128E-05
    0.42217519982456273882E-05
    0.25154026771156601016E-04
    0.28565320457744048884E-04
    0.55213249672383890533E-04
    0.49368263631348121580E-04
    0.24014659159704491271E-04
    0.16268747254262601684E-04
    0.73197736337500419126E-05
    0.75211798713399342486E-05
    0.33690703032906924093E-05
    0.37047212333780673550E-05
    0.89337838087328457518E-05
    0.11085738874430365366E-04
    0.15127026158782990893E-04
    0.14289147612125796714E-04
    0.13747515289624321353E-03
    0.13236532428580132068E-03
    0.22896014582475602813E-03
    0.18544205256251032458E-03
    0.93715576031527239240E-04
    0.57924626608111260458E-04
    0.28378913196530064218E-04
    0.33253607930607284669E-04
    0.16891157519800789936E-04
    0.20392950710024560949E-04
    0.47069009528705779330E-04
    0.65019024841360761684E-04
    0.70512657975932560095E-04
    0.63086902197631962918E-04
    0.34389116990372920618E-04
    0.26807810807180889110E-04
    0.42944878725590475204E-04
    0.29805856832704515893E-04
    0.14475874024571836574E-04
    0.74596211201263452041E-05
    0.37165937775486066162E-05
    0.52806951504914913839E-05
    0.29001144035152558898E-05
    0.40775650134003769813E-05
    0.98984051742277725486E-05
    0.16342033069213393837E-04
    0.13197213959162476125E-04
    0.10816606633454111877E-04
    0.63641730614406237347E-04
    0.43842201193603943501E-04
    0.62324499255194120177E-04
    0.40202065892094012583E-04
    0.20334946581568640533E-04
    0.97689432208376929788E-05
    0.53038461886525264279E-05
    0.84597456544463553311E-05
    0.52764022393303684403E-05
    0.79940985317963406793E-05
    0.18479335988331649756E-04
    0.32797155116057217312E-04
    0.21882840362109969045E-04
    0.17162460466907194265E-04
    0.43181322493437946600E-03
    0.36119476810517615450E-03
    0.55566413424274190697E-03
    0.41574949603715127518E-03
    0.21912994381915906652E-03
    0.12521782445720647530E-03
    0.66896123422654086687E-04
    0.88516292182204420061E-04
    0.51129818081254727665E-04
    0.67083702259519288917E-04
    0.14720755132546464012E-03
    0.22213184524754914944E-03
    0.19513725740331511909E-03
    0.16656638619677745618E-03
    0.81233982471803131004E-03
    0.59897391425261137417E-03
    0.81468062832942952835E-03
    0.56584955946782633778E-03
    0.31176498756303310531E-03
    0.16543089331892170402E-03
    0.96681150806284308187E-04
    0.14409465218622710854E-03
    0.94852076139004327699E-04
    0.13439980558332300232E-03
    0.28003798546812270261E-03
    0.45625420971424950544E-03
    0.32866818288193599962E-03
    0.26825776206367517437E-03
    0.37914493586701754525E-08
    0.53074386228462098711E-08
    0.80974058552409361041E-08
    0.10798678568390842767E-07
    0.63833255017002560312E-08
    0.61307275944846769446E-08
    0.34137869235960539615E-08
    0.37055780973690244200E-08
    0.26744809993032806181E-08
    0.37072275435977613068E-08
    0.30563436570979505405E-08
    0.38827062072999836297E-08
    0.35669716227359982253E-08
    0.38660004398239867026E-08
    0.44241701673790609490E-07
    0.82039005815259658676E-07
    0.19499187345509343096E-06
    0.25951796135118192359E-06
    0.12671856809380556961E-06
    0.13381362605386650730E-06
    0.51208902039050171698E-07
    0.33576405806157078534E-07
    0.11648651224116846421E-07
    0.95080271843074244894E-08
    0.22016366883973381821E-07
    0.18172947446977224587E-07
    0.47600922978221256762E-07
    0.55308082719005162354E-07
    0.68271431217155249271E-08
    0.11632770124166384521E-07
    0.23428745943881776932E-07
    0.35543901884629631621E-07
    0.19638806217308750143E-07
    0.24163011323177674884E-07
    0.10360161482821731759E-07
    0.74511919231784775520E-08
    0.40389798386408596962E-08
    0.48641011069201447429E-08
    0.50681327489391288708E-08
    0.56796433294875320284E-08
    0.78337135767030872632E-08
    0.93085900153591715136E-08
    0.14443592823055497058E-06
    0.28938458178522109744E-06
    0.66827739929485522684E-06
    0.96473849682784780187E-06
    0.51930641761262339052E-06
    0.62955052432956322591E-06
    0.25702320957788187731E-06
    0.15354739243092495232E-06
    0.54839210091598585967E-07
    0.39721569096180354444E-07
    0.85009647974027202263E-07
    0.62578069077745850548E-07
    0.18873722636286844191E-06
    0.22985594387744981639E-06
    0.10339091931778785691E-05
    0.17181950293152711557E-05
    0.38151150617816390487E-05
    0.46623101352880643087E-05
    0.23475620839735169605E-05
    0.22837526058733976668E-05
    0.93683550047484243325E-06
    0.67123632552623105422E-06
    0.25149864179092298579E-06
    0.21071883661266179919E-06
    0.48954836651463957815E-06
    0.43757794146267763925E-06
    0.10153131674411240164E-05
    0.11279167957196672220E-05
    0.16268873474796473886E-04
    0.24014678584482114260E-04
    0.49368127088512604890E-04
    0.55213358813320670773E-04
    0.28565292039489743799E-04
    0.25153897120226187850E-04
    0.11085826402065563392E-04
    0.89338018495995012827E-05
    0.37045652880432045487E-05
    0.33692284512539432774E-05
    0.75211622223834345078E-05
    0.73196868315034498801E-05
    0.14289130502516284387E-04
    0.15127040539963234814E-04
    0.35282226786300021928E-05
    0.63575428924075929549E-05
    0.13604834183235532517E-04
    0.18135650004503274123E-04
    0.10132767096017419089E-04
    0.11390445803424616405E-04
    0.50138991176514755363E-05
    0.32859108366897415583E-05
    0.12897873441672917179E-05
    0.99254893650350823577E-06
    0.20448543624359385734E-05
    0.16185132381417052225E-05
    0.42217422176990951476E-05
    0.49229461668660978415E-05
    0.57924748657032773590E-04
    0.93715575426061163201E-04
    0.18544188188722245700E-03
    0.22896015761618310224E-03
    0.13236523966440627868E-03
    0.13747496034793553889E-03
    0.65019089573030032351E-04
    0.47069012273761169467E-04
    0.20392789856186763420E-04
    0.16891312416473877345E-04
    0.33253582740070690882E-04
    0.28378823326378497730E-04
    0.63086866489836166110E-04
    0.70512647701209362730E-04
    0.11369712874346367781E-07
    0.22051531246666569497E-07
    0.47489478806526656566E-07
    0.78556574032804947261E-07
    0.46322620049060004623E-07
    0.66590556083907171041E-07
    0.28156975806121249858E-07
    0.16296066461488385269E-07
    0.74314847240647448503E-08
    0.74952718013749620137E-08
    0.89885078862727000920E-08
    0.86997776395052018070E-08
    0.16078670821055090579E-07
    0.20441818807727118099E-07
    0.29840357067381873794E-06
    0.64149808831136345464E-06
    0.14309959785497772802E-05
    0.22265597344121736852E-05
    0.13343211696662868152E-05
    0.18370162886499183773E-05
    0.80554623000313671476E-06
    0.44659383257082249912E-06
    0.16651833066658508668E-06
    0.11090463301980511753E-06
    0.21198278859564044896E-06
    0.13919167288925284916E-06
    0.47015684410401110221E-06
    0.59846903982211407793E-06
    0.13940840112845940423E-07
    0.29203236549283441866E-07
    0.62365808289532877220E-07
    0.11075124934553566931E-06
    0.72429883443919267072E-07
    0.11792484145767329998E-06
    0.52492448333010071814E-07
    0.27229641499644990143E-07
    0.11930674974072477053E-07
    0.10603493880367477955E-07
    0.12657469562334861449E-07
    0.10891361833183328898E-07
    0.23665663867985835902E-07
    0.31610073357263928780E-07
    0.38721514748971487180E-06
    0.88946007958706608892E-06
    0.19115624455131025700E-05
    0.31917092768172085514E-05
    0.21492500681616156205E-05
    0.33350528725976276807E-05
    0.15787247640551698641E-05
    0.81785388107560555628E-06
    0.31926455024057530611E-06
    0.19736663999596837541E-06
    0.33380514828554901862E-06
    0.19587824689639164268E-06
    0.73507722661157137787E-06
    0.97685414954452987844E-06
    0.74597589826680589051E-05
    0.14475905903743302428E-04
    0.29805742094920399074E-04
    0.42945011197292763726E-04
    0.26807793263542915960E-04
    0.34388993113257581506E-04
    0.16342124999599138950E-04
    0.98984295859707124881E-05
    0.40774169062566868149E-05
    0.29002824781308112852E-05
    0.52806868700601428541E-05
    0.37165186903017378543E-05
    0.10816598249835385204E-04
    0.13197236406892579356E-04
    0.12521798424774515908E-03
    0.21913004510364187468E-03
    0.41574956100101726755E-03
    0.55566455494457270108E-03
    0.36119486528034510774E-03
    0.43181315339109948518E-03
    0.22213191860969019138E-03
    0.14720757657248103169E-03
    0.67083544234307096888E-04
    0.51129979433503103140E-04
    0.88516292410231300208E-04
    0.66896050489591312891E-04
    0.16656641296396195373E-03