# vtk DataFile Version 3.0
LAPLACIEN  2D
ASCII
DATASET UNSTRUCTURED_GRID
 POINTS        1857  float
   3.1250000000000000E-002  0.93750000000000000        0.0000000000000000     
   6.2500000000000000E-002  0.93750000000000000        0.0000000000000000     
   6.2500000000000000E-002  0.96875000000000000        0.0000000000000000     
   1.8749999999999999E-002  0.95625000000000004        0.0000000000000000     
   4.0625000000000001E-002  0.95937499999999998        0.0000000000000000     
   4.3749999999999997E-002  0.98124999999999996        0.0000000000000000     
   2.1874999999999999E-002  0.97812500000000002        0.0000000000000000     
   9.3750000000000000E-002  0.93750000000000000        0.0000000000000000     
  0.12500000000000000       0.93750000000000000        0.0000000000000000     
  0.12500000000000000       0.96875000000000000        0.0000000000000000     
   8.1250000000000003E-002  0.95625000000000004        0.0000000000000000     
  0.10312499999999999       0.95937499999999998        0.0000000000000000     
  0.10625000000000000       0.98124999999999996        0.0000000000000000     
   8.4375000000000006E-002  0.97812500000000002        0.0000000000000000     
   3.1250000000000000E-002  0.87500000000000000        0.0000000000000000     
   6.2500000000000000E-002  0.87500000000000000        0.0000000000000000     
   6.2500000000000000E-002  0.90625000000000000        0.0000000000000000     
   1.8749999999999999E-002  0.89375000000000004        0.0000000000000000     
   4.0625000000000001E-002  0.89687499999999998        0.0000000000000000     
   4.3749999999999997E-002  0.91874999999999996        0.0000000000000000     
   2.1874999999999999E-002  0.91562500000000002        0.0000000000000000     
   9.3750000000000000E-002  0.87500000000000000        0.0000000000000000     
  0.12500000000000000       0.87500000000000000        0.0000000000000000     
  0.12500000000000000       0.90625000000000000        0.0000000000000000     
   8.1250000000000003E-002  0.89375000000000004        0.0000000000000000     
  0.10312499999999999       0.89687499999999998        0.0000000000000000     
  0.10625000000000000       0.91874999999999996        0.0000000000000000     
   8.4375000000000006E-002  0.91562500000000002        0.0000000000000000     
  0.15625000000000000       0.93750000000000000        0.0000000000000000     
  0.18750000000000000       0.93750000000000000        0.0000000000000000     
  0.18750000000000000       0.96875000000000000        0.0000000000000000     
  0.14374999999999999       0.95625000000000004        0.0000000000000000     
  0.16562499999999999       0.95937499999999998        0.0000000000000000     
  0.16875000000000001       0.98124999999999996        0.0000000000000000     
  0.14687500000000001       0.97812500000000002        0.0000000000000000     
  0.21875000000000000       0.93750000000000000        0.0000000000000000     
  0.25000000000000000       0.93750000000000000        0.0000000000000000     
  0.25000000000000000       0.96875000000000000        0.0000000000000000     
  0.20624999999999999       0.95625000000000004        0.0000000000000000     
  0.22812499999999999       0.95937499999999998        0.0000000000000000     
  0.23125000000000001       0.98124999999999996        0.0000000000000000     
  0.20937500000000001       0.97812500000000002        0.0000000000000000     
  0.15625000000000000       0.87500000000000000        0.0000000000000000     
  0.18750000000000000       0.87500000000000000        0.0000000000000000     
  0.18750000000000000       0.90625000000000000        0.0000000000000000     
  0.14374999999999999       0.89375000000000004        0.0000000000000000     
  0.16562499999999999       0.89687499999999998        0.0000000000000000     
  0.16875000000000001       0.91874999999999996        0.0000000000000000     
  0.14687500000000001       0.91562500000000002        0.0000000000000000     
  0.21875000000000000       0.87500000000000000        0.0000000000000000     
  0.25000000000000000       0.87500000000000000        0.0000000000000000     
  0.25000000000000000       0.90625000000000000        0.0000000000000000     
  0.20624999999999999       0.89375000000000004        0.0000000000000000     
  0.22812499999999999       0.89687499999999998        0.0000000000000000     
  0.23125000000000001       0.91874999999999996        0.0000000000000000     
  0.20937500000000001       0.91562500000000002        0.0000000000000000     
   3.1250000000000000E-002  0.81250000000000000        0.0000000000000000     
   6.2500000000000000E-002  0.81250000000000000        0.0000000000000000     
   6.2500000000000000E-002  0.84375000000000000        0.0000000000000000     
   1.8749999999999999E-002  0.83125000000000004        0.0000000000000000     
   4.0625000000000001E-002  0.83437499999999998        0.0000000000000000     
   4.3749999999999997E-002  0.85624999999999996        0.0000000000000000     
   2.1874999999999999E-002  0.85312500000000002        0.0000000000000000     
   9.3750000000000000E-002  0.81250000000000000        0.0000000000000000     
  0.12500000000000000       0.81250000000000000        0.0000000000000000     
  0.12500000000000000       0.84375000000000000        0.0000000000000000     
   8.1250000000000003E-002  0.83125000000000004        0.0000000000000000     
  0.10312499999999999       0.83437499999999998        0.0000000000000000     
  0.10625000000000000       0.85624999999999996        0.0000000000000000     
   8.4375000000000006E-002  0.85312500000000002        0.0000000000000000     
   3.1250000000000000E-002  0.75000000000000000        0.0000000000000000     
   6.2500000000000000E-002  0.75000000000000000        0.0000000000000000     
   6.2500000000000000E-002  0.78125000000000000        0.0000000000000000     
   1.8749999999999999E-002  0.76875000000000004        0.0000000000000000     
   4.0625000000000001E-002  0.77187499999999998        0.0000000000000000     
   4.3749999999999997E-002  0.79374999999999996        0.0000000000000000     
   2.1874999999999999E-002  0.79062500000000002        0.0000000000000000     
   9.3750000000000000E-002  0.75000000000000000        0.0000000000000000     
  0.12500000000000000       0.75000000000000000        0.0000000000000000     
  0.12500000000000000       0.78125000000000000        0.0000000000000000     
   8.1250000000000003E-002  0.76875000000000004        0.0000000000000000     
  0.10312499999999999       0.77187499999999998        0.0000000000000000     
  0.10625000000000000       0.79374999999999996        0.0000000000000000     
   8.4375000000000006E-002  0.79062500000000002        0.0000000000000000     
  0.15625000000000000       0.81250000000000000        0.0000000000000000     
  0.18750000000000000       0.81250000000000000        0.0000000000000000     
  0.18750000000000000       0.84375000000000000        0.0000000000000000     
  0.14374999999999999       0.83125000000000004        0.0000000000000000     
  0.16562499999999999       0.83437499999999998        0.0000000000000000     
  0.16875000000000001       0.85624999999999996        0.0000000000000000     
  0.14687500000000001       0.85312500000000002        0.0000000000000000     
  0.21875000000000000       0.81250000000000000        0.0000000000000000     
  0.25000000000000000       0.81250000000000000        0.0000000000000000     
  0.25000000000000000       0.84375000000000000        0.0000000000000000     
  0.20624999999999999       0.83125000000000004        0.0000000000000000     
  0.22812499999999999       0.83437499999999998        0.0000000000000000     
  0.23125000000000001       0.85624999999999996        0.0000000000000000     
  0.20937500000000001       0.85312500000000002        0.0000000000000000     
  0.15625000000000000       0.75000000000000000        0.0000000000000000     
  0.18750000000000000       0.75000000000000000        0.0000000000000000     
  0.18750000000000000       0.78125000000000000        0.0000000000000000     
  0.14374999999999999       0.76875000000000004        0.0000000000000000     
  0.16562499999999999       0.77187499999999998        0.0000000000000000     
  0.16875000000000001       0.79374999999999996        0.0000000000000000     
  0.14687500000000001       0.79062500000000002        0.0000000000000000     
  0.21875000000000000       0.75000000000000000        0.0000000000000000     
  0.25000000000000000       0.75000000000000000        0.0000000000000000     
  0.25000000000000000       0.78125000000000000        0.0000000000000000     
  0.20624999999999999       0.76875000000000004        0.0000000000000000     
  0.22812499999999999       0.77187499999999998        0.0000000000000000     
  0.23125000000000001       0.79374999999999996        0.0000000000000000     
  0.20937500000000001       0.79062500000000002        0.0000000000000000     
  0.28125000000000000       0.93750000000000000        0.0000000000000000     
  0.31250000000000000       0.93750000000000000        0.0000000000000000     
  0.31250000000000000       0.96875000000000000        0.0000000000000000     
  0.26874999999999999       0.95625000000000004        0.0000000000000000     
  0.29062500000000002       0.95937499999999998        0.0000000000000000     
  0.29375000000000001       0.98124999999999996        0.0000000000000000     
  0.27187499999999998       0.97812500000000002        0.0000000000000000     
  0.34375000000000000       0.93750000000000000        0.0000000000000000     
  0.37500000000000000       0.93750000000000000        0.0000000000000000     
  0.37500000000000000       0.96875000000000000        0.0000000000000000     
  0.33124999999999999       0.95625000000000004        0.0000000000000000     
  0.35312500000000002       0.95937499999999998        0.0000000000000000     
  0.35625000000000001       0.98124999999999996        0.0000000000000000     
[...]
 CELL_DATA        3584
 SCALARS VEGF float
 LOOKUP_TABLE default
    0.20160551341652177062E-08
    0.26641576753220136717E-08
    0.13138430280385568008E-08
    0.14392988877670391722E-08
    0.27319762708209648051E-08
    0.18752476886736803664E-08
    0.32805100394927034161E-08
    0.22975909475378315765E-08
    0.23611955343409712862E-08
    0.25658292553746128424E-08
    0.22793774236498047158E-08
    0.30088672816389815113E-08
    0.24157815543477437940E-08
    0.24463947504778669249E-08
    0.52419137959422610774E-09
    0.11444530470281582829E-08
    0.18173861146435574098E-09
    0.62486742390343472427E-09
    0.18367870397130169967E-08
    0.12774396424143424443E-08
    0.25437406638675133425E-08
    0.15176642615352127470E-08
    0.25253113504472419319E-08
    0.18730820279749961556E-08
    0.20504826626169256571E-08
    0.11033752722396911742E-08
    0.12240275326587314931E-08
    0.12034469861597247201E-08
    0.14574420193867289011E-08
    0.18219648353153114409E-08
    0.55830536311734885731E-09
    0.37058510041249827139E-09
    0.11765644077460832930E-08
    0.42636750937871003861E-09
    0.12217142582461600348E-08
    0.20558645902845972252E-08
    0.17512621218449009793E-08
    0.27592557176265191797E-08
    0.15672688914721700676E-08
    0.23226909067952906421E-08
    0.12304151196218487501E-08
    0.12827178766165442200E-08
   -0.27992564091161388443E-09
   -0.76643474833184892312E-11
   -0.74442039777282728816E-09
   -0.61748668511817518171E-09
   -0.39110350680938275534E-10
   -0.43646696686140098342E-09
    0.36403524148958235829E-10
    0.36866930381718935317E-09
    0.17334394867175975740E-09
    0.35797465076257986334E-09
    0.37258271234628534309E-09
   -0.13638418577820808619E-10
   -0.52464210143820466968E-09
   -0.51225260528899166390E-09
    0.85245510954028522742E-10
    0.87736992103220776652E-09
    0.27027858608942605079E-10
    0.51854655250661468451E-09
    0.17054823546995498388E-08
    0.11896229529155225415E-08
    0.24114101050633810620E-08
    0.12966009920583302989E-08
    0.21812265927958479638E-08
    0.14126557254460300987E-08
    0.16310991402274612034E-08
    0.48606518423484853785E-09
    0.95957357430570360410E-09
    0.98719606834923549204E-09
    0.38327128265118476873E-10
    0.85142119196459621271E-09
    0.15314842240637735857E-10
    0.51107255613948987188E-09
    0.16942970167044042782E-08
    0.11826561387679884050E-08
    0.23994226516525463800E-08
    0.12734413679028574730E-08
    0.21396973879011165865E-08
    0.13515755662298370312E-08
    0.15814812284462695372E-08
    0.41068881974219248573E-09
    0.93232766043647357945E-09
    0.96582411928887472015E-09
   -0.78487399774988585757E-09
   -0.32202928703674799676E-09
   -0.91685463855469852462E-09
   -0.73723857610709035358E-09
   -0.19846790364727071494E-09
   -0.54218609118737064150E-09
   -0.12409514464590416686E-09
    0.85050294489858486254E-10
   -0.28303847267539672724E-09
   -0.28172716565406469095E-09
   -0.16487633459926383584E-09
   -0.76135377973058018931E-09
   -0.85401360728164770991E-09
   -0.78265092986665330281E-09
   -0.79950573864507361695E-09
   -0.30825818601819192806E-09
   -0.79630202282040189010E-09
   -0.64873268201051380395E-09
   -0.18296629935183243814E-09
   -0.53739234416560011199E-09
   -0.13423846944716769492E-09
    0.61810533803542409594E-10
   -0.33067509811359442878E-09
   -0.35370152271206340246E-09
   -0.21773074704299274349E-09
   -0.83962233761822950657E-09
   -0.87238764333994237222E-09
   -0.79625717032252517187E-09
    0.13767324717953497170E-08
    0.17010949656666335994E-08
    0.46073031229806336107E-09
    0.22829069624025559961E-09
    0.93002197330917920621E-09
    0.20311723080376156154E-10
    0.65049887834385315271E-09
    0.16671241306431928157E-08
    0.13222580062734328142E-08
    0.24393206810391968665E-08
    0.13625787882787889849E-08
    0.22006117634084741208E-08
    0.10306573926548332717E-08
    0.10382851915956882873E-08
   -0.37687856630630710794E-09
   -0.15439037095489679811E-09
   -0.85422193010480242716E-09
   -0.77631949602804414408E-09
   -0.33066914184742047704E-09
   -0.90693231040182908240E-09
   -0.66185236713678633148E-09
   -0.13119079583401215656E-09
   -0.42096277836652553944E-09
   -0.64733387715948617135E-10
    0.11052893677144640900E-09
   -0.16130139740336201119E-09
   -0.77471691278517034738E-09
   -0.81750753128651334622E-09
    0.13704768078710799464E-08
    0.16910163509337511434E-08
    0.45409856078888381434E-09
    0.21785720821372025922E-09
    0.90649607974235664218E-09
   -0.22416237127855191770E-10
    0.58150018728478587055E-09
    0.16217894218372357023E-08
    0.12662845706394951760E-08
    0.24013708238977774966E-08
    0.13415132929110913810E-08
    0.21897676770942269865E-08
    0.10112618232924223617E-08
    0.10135169325268165393E-08
   -0.37125550974840094381E-09
   -0.13758835435758439477E-09
   -0.76474883973475406581E-09
   -0.65432481627626618518E-09
   -0.31414374698674777666E-09
   -0.91691494207743843866E-09
   -0.73284332806338714244E-09
   -0.17898182638908047240E-09
   -0.48669466959380564102E-09
   -0.10806976035897165943E-09
    0.89787775872675619824E-10
   -0.17012479433668020768E-09
   -0.78598885173152801258E-09
   -0.83296955931590733708E-09
   -0.84200250400897370599E-09
   -0.39881427904259709901E-09
   -0.77307499928428036262E-09
   -0.64253452231565513602E-09
   -0.42024728665462475910E-09
   -0.97321792809242489017E-09
   -0.82937802171440869938E-09
   -0.43212542843181532675E-09
   -0.92635317735630109916E-09
   -0.75282057329983930332E-09
   -0.44376895829078463201E-09
   -0.91522743075922119053E-09
   -0.10930279220398645488E-08
   -0.10769372475178408348E-08
    0.10319987848789003642E-08
    0.20789260821939446707E-08
    0.65714893214084767113E-08
    0.55642241787306574889E-08
    0.15670906896942969854E-08
    0.88091308116299043361E-10
   -0.54599361403293597836E-09
   -0.17221332829582287146E-09
   -0.90389041187337221733E-09
   -0.74473867980347508804E-09
   -0.14314509207994018382E-09
   -0.48170270217808963075E-09
   -0.25266667365694317543E-09
   -0.30382756072305600837E-09
    0.22021628164851746669E-09
    0.15899029901801296853E-08
    0.54347108338193240006E-08
    0.67035213813650514695E-08
    0.20603113467524048614E-08
    0.90546733648079143081E-09
   -0.38851084688273894315E-09
   -0.12628145442150924389E-09
   -0.91170979976569104791E-09
   -0.72571340677255668962E-09
   -0.18117056656457318924E-09
   -0.63038256296377270571E-09
   -0.31747066415177622879E-09
   -0.23355707569233550700E-09
    0.49506305155286359650E-07
    0.76301395123470834306E-07
    0.21409036735424224255E-06
    0.21422132065354575944E-06
    0.76281357561961141436E-07
    0.49378782199635056226E-07
    0.14175023728253838265E-07
    0.12198918290371360593E-07
    0.24533158274849782306E-08
    0.26249471693663193967E-08
    0.12184764734753969306E-07
    0.14083344163267416989E-07
    0.29726437280532720914E-07
    0.29743089714864135361E-07
    0.41634665260547534308E-10
    0.85495325205029001724E-09
    0.29271316299828521588E-10
    0.51865491472848720572E-09
    0.16959618839484106898E-08
    0.11831333145674139145E-08
    0.23991183619011667094E-08
    0.12724368286872332918E-08
    0.21370982894496370601E-08
    0.13472827355790580763E-08
    0.15788437092845169799E-08
    0.40678447128640722134E-09
    0.93213319373904052951E-09
    0.96565142587921845109E-09
    0.88862771487952596906E-10
    0.88567994720536861575E-09
    0.10760795779474373995E-09
    0.55622552012812526226E-09
    0.17068295725272042093E-08
    0.11866110930535874784E-08
    0.24005065932146992335E-08
    0.12742408148500167979E-08
    0.21377459850859736245E-08
    0.13482077629353899797E-08
    0.15836663658370765994E-08
    0.41887672139673517588E-09
    0.94074071987674109534E-09
    0.97142925649715835690E-09
   -0.15046988559254610448E-09
    0.28135921536172573684E-09
    0.82762276750430005205E-09
    0.36708453866282996720E-09
    0.12680349158776114254E-09
   -0.41468921691851024885E-09
   -0.99888226321754272392E-10
    0.10674159141257978110E-09
   -0.32027908841372745817E-09
   -0.33862050619709882318E-09
   -0.13240240066493742554E-09
   -0.67209788206304619707E-09
   -0.69037638423275893549E-09
   -0.65471370311874206649E-09
    0.52748747871640700420E-08
    0.42469662298975431603E-08
    0.10316641742496955473E-07
    0.55516118345120532163E-08
    0.17847335698229981131E-08
    0.17281392372876177643E-09
    0.85629470812318254842E-10
    0.40399535965007205749E-09
   -0.21956498103463124950E-09
   -0.16754909781536407387E-09
    0.58613739836958472601E-09
    0.89087333989953026583E-09
    0.56520552147008053668E-09
    0.25129349338907927654E-09
    0.26367110043858741439E-09
    0.97767748628286711567E-09
    0.30457454015469649900E-09
    0.63933506497910440992E-09
    0.17320136531655102138E-08
    0.11938436336017746782E-08
    0.24038166626316164801E-08
    0.12795083055218931230E-08
    0.21403092903415358087E-08
    0.13524659735445431866E-08
    0.16017800230694704986E-08
    0.46836449781415177158E-09
    0.96712399349733002769E-09
    0.98788080209761252348E-09
    0.54346437949044534134E-09
    0.10912665970699220066E-08
    0.48363835176290095761E-09
    0.70118978324100633028E-09
    0.17524277467177870575E-08
    0.11987053672434674914E-08
    0.24066852931638272873E-08
    0.12856323741741794456E-08
    0.21442289973530636465E-08
    0.13599432619612400678E-08
    0.16312757537805064280E-08
    0.55777070966437869092E-09
    0.10005748703637625703E-08
    0.10067466926778868068E-08
    0.26769448993950570641E-07
    0.16871254403860304045E-07
    0.35629141702748166751E-07
    0.17626004608154412603E-07
    0.58513137409875037704E-08
    0.14546545606271552944E-08
    0.54637990256315261260E-09
    0.13090623505731740748E-08
    0.15189500672347983506E-09
    0.54812933834811515192E-09
    0.34049949515974282149E-08
    0.76930145687542659759E-08
    0.46450672137867982551E-08
    0.29782893304608650986E-08
    0.62901441889638466464E-07
    0.33130376161680001511E-07
    0.59610682896940685794E-07
    0.26904656920012228576E-07
    0.92900528223710362338E-08
    0.23425162605095707399E-08
    0.95904652386198852995E-09
    0.24074686578152455901E-08
    0.74738381052589948478E-09
    0.18758863167882636158E-08
    0.82200995083060998164E-08
    0.20727342515010121209E-07
    0.10048948969436268437E-07
    0.62365176212605062424E-08
    0.38238862970936719824E-07
    0.40607541467862669828E-07
    0.10660633535569772795E-06
    0.77733820717084337435E-07
    0.25995429284189307858E-07
    0.11532019794003453401E-07
    0.29864115984992635052E-08
    0.40032437087013952038E-08
    0.36739568653019262913E-09
    0.93396353689177723825E-09
    0.64513551876488137816E-08
    0.10443708232975934339E-07
    0.13375005616922246687E-07
    0.11170168788887408464E-07
    0.38143931286444010833E-06
    0.32406626707645168567E-06
    0.74389507247781838096E-06
    0.47610927771886608004E-06
    0.16806900599578856836E-06
    0.70425134619004881747E-07
    0.23339940819899722430E-07
    0.33286309915262927152E-07
    0.10930063289135101366E-07
    0.16863640266100524652E-07
    0.65147727885431198468E-07
    0.12054486863401874195E-06
    0.11559994864678697293E-06
    0.90805584293798088422E-07
    0.11653042574055676033E-05
    0.14152714445338134945E-05
    0.35160397342506559138E-05
    0.29727254950933690583E-05
    0.11161928217401616428E-05
    0.63251374333595535852E-06
    0.21002433863062945972E-06
    0.21675580906205218532E-06
    0.68498199759646519728E-07
    0.79214356685136619889E-07
    0.27451499582674021016E-06
    0.37711449501149986868E-06
    0.57421516408496597722E-06
    0.52649722177621669200E-06
    0.12861570305728360229E-04
    0.12367258459990806125E-04
    0.26706901861206708146E-04
    0.19540954450821501170E-04
    0.77383768090566245143E-05
    0.38750323095842582891E-05
    0.14410536694693600389E-05
    0.17964586253800702702E-05
    0.67692053334034977977E-06
    0.89235210818449578352E-06
    0.28827895935407606571E-05
    0.45604666392378752308E-05
    0.51075713432559394122E-05
    0.43313338270869033896E-05
    0.18418360039562685797E-05
    0.12859907039312262211E-05
    0.25486531892784626859E-05
    0.14544784324774797927E-05
    0.53820330581395410029E-06
    0.20566782017397976792E-06
    0.76951964510166582488E-07
    0.12837081189391593748E-06
    0.52690036933174552445E-07
    0.88680397178561753150E-07
    0.31197231506271700651E-06
    0.64041698655932056331E-06
    0.47026402116765238908E-06
    0.34615824654893850903E-06
    0.44208165033564487525E-05
    0.25782440418818876432E-05
    0.43294726374667324778E-05
    0.22308795021479839308E-05
    0.86526013891789543698E-06
    0.30245419092459111277E-06
    0.12697108520364971930E-06
    0.24901249432834424733E-06
    0.12302085461869496697E-06
    0.22943047235277061621E-06
    0.75452504341267173753E-06
    0.16987997161395537276E-05
    0.96120440783179207466E-06
    0.66432255134715009882E-06
    0.66289497561121022654E-04
    0.51920368452137619607E-04
    0.96202506390331453054E-04
    0.62405861415407628949E-04
    0.26058441711651986287E-04
    0.11708927096813959555E-04
    0.48823674759474511477E-05
    0.72673631036894345932E-05
    0.32617427801945772414E-05
    0.48519476003592977798E-05
    0.14640753690761181086E-04
    0.26035025162651636188E-04
    0.21887271570546990647E-04
    0.17325890341402157697E-04
    0.16517895643234362579E-03
    0.10724326673061325324E-03
    0.16744382737827735686E-03
    0.97501714125641637354E-04
    0.42972066966756516048E-04
    0.17494981724656146854E-04
    0.82261214663278547384E-05
    0.14522991331525963109E-04
    0.78361771556739373882E-05
    0.13043654834945405240E-04
    0.36733271163087252860E-04
    0.72434302806034984740E-04
    0.46127968665751764251E-04
    0.34198878455711459337E-04
    0.13709959248519225365E-08
    0.16927483864963185605E-08
    0.46172752644744877145E-09
    0.23189226169727189073E-09
    0.91020307122897681906E-09
   -0.18775056976506695797E-10
    0.57816639557450066375E-09
    0.16195126776001152305E-08
    0.12624680080520005257E-08
    0.23990749060668900069E-08
    0.13406615534596805115E-08
    0.21895356686809581647E-08
    0.10112263443124962629E-08
    0.10135058078386356821E-08
   -0.24850556468258256702E-09
    0.17226390866786359948E-09
    0.25113166562549838024E-09
    0.96970355522122954522E-09
    0.27568171296832603778E-09
   -0.26749323279340959719E-09
   -0.56466012632619792494E-09
   -0.93229035632508039578E-10
   -0.47105675210816504384E-09
   -0.97329584574128389104E-10
    0.13489628446338003392E-09
   -0.13569141672683656223E-09
   -0.64428161672145005006E-09
   -0.65074285358334191302E-09
    0.13744747014964104250E-08
    0.17036209697227134822E-08
    0.49930242171162233620E-09
    0.31023612631458656374E-09
    0.94093796221055568078E-09
    0.28470550745353296067E-10
    0.59028855758438014716E-09
    0.16243565988380086407E-08
    0.12634208543813708002E-08
    0.23997416427266148698E-08
    0.13424757116199509437E-08
    0.21909278701036558897E-08
    0.10170125175459578266E-08
    0.10221225207662217847E-08
    0.33900440249954741340E-09
    0.18302020946192370527E-08
    0.54356684904435700217E-08
    0.10458737951301176176E-07
    0.42413090144782545510E-08
    0.51578869107221054602E-08
    0.99835463991579297357E-09
    0.62533209124791078504E-09
   -0.29995837319319731365E-09
    0.34040420252653816548E-11
    0.43216304723418702413E-09
    0.49834837868619354244E-10
    0.26173728449864580056E-09
    0.60485383870431212479E-09
    0.11664239737224882577E-07
    0.26018405264698601863E-07
    0.77604520301101066759E-07
    0.10673865835094981498E-06
    0.40589247579647505451E-07
    0.38112824930806751069E-07
    0.10537624449611145728E-07
    0.64687018854266244261E-08
    0.76760543883940558195E-09
    0.54596386587760853728E-09
    0.39945098948906266018E-08
    0.29021377673682589776E-08
    0.11156753535034823987E-07
    0.13394402864526485245E-07
    0.63264183339317258808E-06
    0.11162136715227884601E-05
    0.29725959198370064549E-05
    0.35161717748424701879E-05
    0.14152522300930528822E-05
    0.11651774683304826979E-05
    0.37720703271702229133E-06
    0.27452983955210693642E-06
    0.79043456585251116647E-07
    0.68670358459857516082E-07
    0.21674213966375910247E-06
    0.20993303526482805294E-06
    0.52648120380324352408E-06
    0.57423248157379083965E-06
    0.70557391712429131735E-07
    0.16809206641759351154E-06
    0.47598011918008006426E-06
    0.74402761517554112303E-06
    0.32404818233140165660E-06
    0.38131360176052256490E-06
    0.12063899446252962391E-06
    0.65165196341139843878E-07
    0.16697360099332837015E-07
    0.11108679332955602621E-07
    0.33277626092914566281E-07
    0.23255691254101881066E-07
    0.90792260741438074713E-07
    0.11561946417428526122E-06
    0.38751607369619690209E-05
    0.77383984126761762957E-05
    0.19540826115390467083E-04
    0.26707035317894977928E-04
    0.12367241352671332075E-04
    0.12861446754923817534E-04
    0.45605610204218101887E-05
    0.28828056133163681675E-05
    0.89218182610743050441E-06
    0.67709314058353639464E-06
    0.17964455359339526877E-05
    0.14409626706365034950E-05
    0.43313187811163829434E-05
    0.51075899297615201192E-05
    0.13817047577535292470E-08
    0.17288041210648769756E-08
    0.58241065819802674163E-09
    0.50720120328189122993E-09
    0.10329346959630750101E-08
    0.20328015881493104562E-09
    0.63977924189267595381E-09
    0.16424702680473462571E-08
    0.12676781736038996040E-08
    0.24023020656281980392E-08
    0.13477423208664832061E-08
    0.21942384403735822093E-08
    0.10334637255068501795E-08
    0.10485062543993792941E-08
    0.16208443091276138920E-08
    0.58967843591343724093E-08
    0.17510066957032438065E-07
    0.35771246041297252307E-07
    0.16865604261215097410E-07
    0.26652474812756235295E-07
    0.78005051575592016972E-08
    0.34441960553166022017E-08
    0.41572388577344667595E-09
    0.37486319971479595468E-09
    0.13372298312028804742E-08
    0.51058312585462230064E-09
    0.29887344363375000596E-08
    0.46847189849910956667E-08
    0.13865661756219303443E-08
    0.17492144859745031586E-08
    0.64426087685726426194E-09
    0.68626067758801081252E-09
    0.11465215132375139790E-08
    0.48307404164487395273E-09
    0.72918338613410633276E-09
    0.16719632183458054071E-08
    0.12751523135773584929E-08
    0.24062200225906739224E-08
    0.13538632302921782169E-08
    0.21971052076480993243E-08
    0.10523268336487401769E-08
    0.10819542423052583154E-08
    0.25086934308922649678E-08
    0.93355158421042073902E-08
    0.26788705805116252430E-07
    0.59752777467979341500E-07
    0.33124723453230013745E-07
    0.62784467100330286520E-07
    0.20834834770370110443E-07
    0.82593006692419238058E-08
    0.17434814727234518360E-08
    0.97035247522666964314E-09
    0.24356315075643341162E-08
    0.92324255486210373546E-09
    0.62469595805163429871E-08
    0.10088596701392764394E-07
    0.20580008095283324087E-06
    0.53822637576143915813E-06
    0.14543492874895835124E-05
    0.25487857309068412722E-05
    0.12859726914570276259E-05
    0.18417104366125615606E-05
    0.64051123548050446919E-06
    0.31198984098035067073E-06
    0.88514148561399383861E-07
    0.52868672452939277892E-07
    0.12836214750050467341E-06
    0.76867723545555655401E-07
    0.34614495024485637766E-06
    0.47028358061223993014E-06
    0.11709055422320262859E-04
    0.26058463683830677710E-04
    0.62405736297900372511E-04
    0.96202648185991451279E-04
    0.51920353684141569114E-04
    0.66289375822975769121E-04
    0.26035120775868727638E-04
    0.14640770239817114693E-04
    0.48517776001828514655E-05
    0.32619155538268249023E-05
    0.72673501790568823753E-05
    0.48822764626753565126E-05
    0.17325875621798559765E-04