# vtk DataFile Version 3.0
LAPLACIEN  2D
ASCII
DATASET UNSTRUCTURED_GRID
 POINTS        1857  float
   3.1250000000000000E-002  0.93750000000000000        0.0000000000000000     
   6.2500000000000000E-002  0.93750000000000000        0.0000000000000000     
   6.2500000000000000E-002  0.96875000000000000        0.0000000000000000     
   1.8749999999999999E-002  0.95625000000000004        0.0000000000000000     
   4.0625000000000001E-002  0.95937499999999998        0.0000000000000000     
   4.3749999999999997E-002  0.98124999999999996        0.0000000000000000     
   2.1874999999999999E-002  0.97812500000000002        0.0000000000000000     
   9.3750000000000000E-002  0.93750000000000000        0.0000000000000000     
  0.12500000000000000       0.93750000000000000        0.0000000000000000     
  0.12500000000000000       0.96875000000000000        0.0000000000000000     
   8.1250000000000003E-002  0.95625000000000004        0.0000000000000000     
  0.10312499999999999       0.95937499999999998        0.0000000000000000     
  0.10625000000000000       0.98124999999999996        0.0000000000000000     
   8.4375000000000006E-002  0.97812500000000002        0.0000000000000000     
   3.1250000000000000E-002  0.87500000000000000        0.0000000000000000     
   6.2500000000000000E-002  0.87500000000000000        0.0000000000000000     
   6.2500000000000000E-002  0.90625000000000000        0.0000000000000000     
   1.8749999999999999E-002  0.89375000000000004        0.0000000000000000     
   4.0625000000000001E-002  0.89687499999999998        0.0000000000000000     
   4.3749999999999997E-002  0.91874999999999996        0.0000000000000000     
   2.1874999999999999E-002  0.91562500000000002        0.0000000000000000     
   9.3750000000000000E-002  0.87500000000000000        0.0000000000000000     
  0.12500000000000000       0.87500000000000000        0.0000000000000000     
  0.12500000000000000       0.90625000000000000        0.0000000000000000     
   8.1250000000000003E-002  0.89375000000000004        0.0000000000000000     
  0.10312499999999999       0.89687499999999998        0.0000000000000000     
  0.10625000000000000       0.91874999999999996        0.0000000000000000     
   8.4375000000000006E-002  0.91562500000000002        0.0000000000000000     
  0.15625000000000000       0.93750000000000000        0.0000000000000000     
  0.18750000000000000       0.93750000000000000        0.0000000000000000     
  0.18750000000000000       0.96875000000000000        0.0000000000000000     
  0.14374999999999999       0.95625000000000004        0.0000000000000000     
  0.16562499999999999       0.95937499999999998        0.0000000000000000     
  0.16875000000000001       0.98124999999999996        0.0000000000000000     
  0.14687500000000001       0.97812500000000002        0.0000000000000000     
  0.21875000000000000       0.93750000000000000        0.0000000000000000     
  0.25000000000000000       0.93750000000000000        0.0000000000000000     
  0.25000000000000000       0.96875000000000000        0.0000000000000000     
  0.20624999999999999       0.95625000000000004        0.0000000000000000     
  0.22812499999999999       0.95937499999999998        0.0000000000000000     
  0.23125000000000001       0.98124999999999996        0.0000000000000000     
  0.20937500000000001       0.97812500000000002        0.0000000000000000     
  0.15625000000000000       0.87500000000000000        0.0000000000000000     
  0.18750000000000000       0.87500000000000000        0.0000000000000000     
  0.18750000000000000       0.90625000000000000        0.0000000000000000     
  0.14374999999999999       0.89375000000000004        0.0000000000000000     
  0.16562499999999999       0.89687499999999998        0.0000000000000000     
  0.16875000000000001       0.91874999999999996        0.0000000000000000     
  0.14687500000000001       0.91562500000000002        0.0000000000000000     
  0.21875000000000000       0.87500000000000000        0.0000000000000000     
  0.25000000000000000       0.87500000000000000        0.0000000000000000     
  0.25000000000000000       0.90625000000000000        0.0000000000000000     
  0.20624999999999999       0.89375000000000004        0.0000000000000000     
  0.22812499999999999       0.89687499999999998        0.0000000000000000     
  0.23125000000000001       0.91874999999999996        0.0000000000000000     
  0.20937500000000001       0.91562500000000002        0.0000000000000000     
   3.1250000000000000E-002  0.81250000000000000        0.0000000000000000     
   6.2500000000000000E-002  0.81250000000000000        0.0000000000000000     
   6.2500000000000000E-002  0.84375000000000000        0.0000000000000000     
   1.8749999999999999E-002  0.83125000000000004        0.0000000000000000     
   4.0625000000000001E-002  0.83437499999999998        0.0000000000000000     
   4.3749999999999997E-002  0.85624999999999996        0.0000000000000000     
   2.1874999999999999E-002  0.85312500000000002        0.0000000000000000     
   9.3750000000000000E-002  0.81250000000000000        0.0000000000000000     
  0.12500000000000000       0.81250000000000000        0.0000000000000000     
  0.12500000000000000       0.84375000000000000        0.0000000000000000     
   8.1250000000000003E-002  0.83125000000000004        0.0000000000000000     
  0.10312499999999999       0.83437499999999998        0.0000000000000000     
  0.10625000000000000       0.85624999999999996        0.0000000000000000     
   8.4375000000000006E-002  0.85312500000000002        0.0000000000000000     
   3.1250000000000000E-002  0.75000000000000000        0.0000000000000000     
   6.2500000000000000E-002  0.75000000000000000        0.0000000000000000     
   6.2500000000000000E-002  0.78125000000000000        0.0000000000000000     
   1.8749999999999999E-002  0.76875000000000004        0.0000000000000000     
   4.0625000000000001E-002  0.77187499999999998        0.0000000000000000     
   4.3749999999999997E-002  0.79374999999999996        0.0000000000000000     
   2.1874999999999999E-002  0.79062500000000002        0.0000000000000000     
   9.3750000000000000E-002  0.75000000000000000        0.0000000000000000     
  0.12500000000000000       0.75000000000000000        0.0000000000000000     
  0.12500000000000000       0.78125000000000000        0.0000000000000000     
   8.1250000000000003E-002  0.76875000000000004        0.0000000000000000     
  0.10312499999999999       0.77187499999999998        0.0000000000000000     
  0.10625000000000000       0.79374999999999996        0.0000000000000000     
   8.4375000000000006E-002  0.79062500000000002        0.0000000000000000     
  0.15625000000000000       0.81250000000000000        0.0000000000000000     
  0.18750000000000000       0.81250000000000000        0.0000000000000000     
  0.18750000000000000       0.84375000000000000        0.0000000000000000     
  0.14374999999999999       0.83125000000000004        0.0000000000000000     
  0.16562499999999999       0.83437499999999998        0.0000000000000000     
  0.16875000000000001       0.85624999999999996        0.0000000000000000     
  0.14687500000000001       0.85312500000000002        0.0000000000000000     
  0.21875000000000000       0.81250000000000000        0.0000000000000000     
  0.25000000000000000       0.81250000000000000        0.0000000000000000     
  0.25000000000000000       0.84375000000000000        0.0000000000000000     
  0.20624999999999999       0.83125000000000004        0.0000000000000000     
  0.22812499999999999       0.83437499999999998        0.0000000000000000     
  0.23125000000000001       0.85624999999999996        0.0000000000000000     
  0.20937500000000001       0.85312500000000002        0.0000000000000000     
  0.15625000000000000       0.75000000000000000        0.0000000000000000     
  0.18750000000000000       0.75000000000000000        0.0000000000000000     
  0.18750000000000000       0.78125000000000000        0.0000000000000000     
  0.14374999999999999       0.76875000000000004        0.0000000000000000     
  0.16562499999999999       0.77187499999999998        0.0000000000000000     
  0.16875000000000001       0.79374999999999996        0.0000000000000000     
  0.14687500000000001       0.79062500000000002        0.0000000000000000     
  0.21875000000000000       0.75000000000000000        0.0000000000000000     
  0.25000000000000000       0.75000000000000000        0.0000000000000000     
  0.25000000000000000       0.78125000000000000        0.0000000000000000     
  0.20624999999999999       0.76875000000000004        0.0000000000000000     
  0.22812499999999999       0.77187499999999998        0.0000000000000000     
  0.23125000000000001       0.79374999999999996        0.0000000000000000     
  0.20937500000000001       0.79062500000000002        0.0000000000000000     
  0.28125000000000000       0.93750000000000000        0.0000000000000000     
  0.31250000000000000       0.93750000000000000        0.0000000000000000     
  0.31250000000000000       0.96875000000000000        0.0000000000000000     
  0.26874999999999999       0.95625000000000004        0.0000000000000000     
  0.29062500000000002       0.95937499999999998        0.0000000000000000     
  0.29375000000000001       0.98124999999999996        0.0000000000000000     
  0.27187499999999998       0.97812500000000002        0.0000000000000000     
  0.34375000000000000       0.93750000000000000        0.0000000000000000     
  0.37500000000000000       0.93750000000000000        0.0000000000000000     
  0.37500000000000000       0.96875000000000000        0.0000000000000000     
  0.33124999999999999       0.95625000000000004        0.0000000000000000     
  0.35312500000000002       0.95937499999999998        0.0000000000000000     
  0.35625000000000001       0.98124999999999996        0.0000000000000000     
[...]
 CELL_DATA        3584
 SCALARS VEGF float
 LOOKUP_TABLE default
    0.32081067960289290236E-08
    0.38393302304960058339E-08
    0.24979168619733808668E-08
    0.26144479661582742690E-08
    0.39003886245344143474E-08
    0.30719116575225452052E-08
    0.43917873283325512125E-08
    0.34843438717303113548E-08
    0.35137909477339796725E-08
    0.37043407911666609684E-08
    0.34624813867145804774E-08
    0.41339734552231192830E-08
    0.36373956864271268336E-08
    0.36666733785411183839E-08
    0.16667128170425241590E-08
    0.22530959794635695324E-08
    0.12836494704387520285E-08
    0.17146372350329074917E-08
    0.29239718689534879421E-08
    0.23891787476829097635E-08
    0.35777985377652188579E-08
    0.26421646628881730532E-08
    0.36354328208180732267E-08
    0.30524761756279080572E-08
    0.31931573424635319480E-08
    0.22742391652234488829E-08
    0.23835447663704276030E-08
    0.23586378241958106287E-08
    0.25679530448033380445E-08
    0.29188724899224414781E-08
    0.16601434228711943145E-08
    0.14666289675004865192E-08
    0.22823669849649002026E-08
    0.15678982393406774441E-08
    0.23883015124690853446E-08
    0.32037395914310294658E-08
    0.29383031861451832701E-08
    0.38542606102457962162E-08
    0.26895075091065792014E-08
    0.33734170611549549144E-08
    0.23891936103323109712E-08
    0.24434453087446999314E-08
    0.82894377247723530359E-09
    0.10982132851822584202E-08
    0.52056641820100610905E-09
    0.63852670489172895508E-09
    0.10610838723692350020E-08
    0.66825796132496791413E-09
    0.11276681769869533153E-08
    0.14507319617251360992E-08
    0.13098309600019092884E-08
    0.14799839277323468264E-08
    0.14519230360715937299E-08
    0.10848110766972423005E-08
    0.58837992656942628447E-09
    0.59942984858185231783E-09
    0.11895896296546883144E-08
    0.19701739775612424025E-08
    0.12350858505549352511E-08
    0.16927389427298462807E-08
    0.27801057404425828572E-08
    0.22785214807493289402E-08
    0.33937362373155636916E-08
    0.23536452597914119464E-08
    0.32078971083577931656E-08
    0.25063027200406621704E-08
    0.26949706474379768500E-08
    0.15780011821975409690E-08
    0.20621520610963551442E-08
    0.20879690295109478662E-08
    0.17846750704497110541E-08
    0.25862927647996704853E-08
    0.27553466278428317495E-08
    0.28255078532628236804E-08
    0.31939915783670379962E-08
    0.25097927307056920134E-08
    0.34871423076687185894E-08
    0.24112233761155689788E-08
    0.31750458875126887885E-08
    0.24458838588539789656E-08
    0.27481252961797704125E-08
    0.16796735481231705610E-08
    0.22729784660342485590E-08
    0.22730321334197583514E-08
    0.16203609629570787822E-08
    0.24372553044261541937E-08
    0.45443894104214161772E-08
    0.42970115685938620241E-08
    0.23306326122864224318E-08
    0.14516657638964391823E-08
    0.12211864661119864131E-08
    0.13881479371352612985E-08
    0.85408240793581709787E-09
    0.84408053198522832958E-09
    0.11675186781710408307E-08
    0.69562903219735900275E-09
    0.91198960028789023211E-09
    0.94828506724878156625E-09
    0.18174408468864588227E-07
    0.20200148651680891353E-07
    0.44268347252039872484E-07
    0.36596521888281495918E-07
    0.15401678284512958348E-07
    0.89899976029835666804E-08
    0.40109937749322394167E-08
    0.43964832972112585011E-08
    0.19081964268197661059E-08
    0.20893623924715073167E-08
    0.52437574143283507026E-08
    0.65597177888707612002E-08
    0.85855660232152777281E-08
    0.78405643225878397930E-08
    0.24673407287083227595E-08
    0.27886749827976483947E-08
    0.16500522889741384317E-08
    0.14337939919625024007E-08
    0.20235459690284955450E-08
    0.11272531625281603147E-08
    0.17415433298432537327E-08
    0.27398041568266583876E-08
    0.24271726956767674503E-08
    0.34546115194669011969E-08
    0.24209585689751016334E-08
    0.32029099335597340823E-08
    0.21385760603287336698E-08
    0.21456829235617344157E-08
    0.16241127425280226606E-08
    0.23836711277168067349E-08
    0.41921351693469633976E-08
    0.46793165460711047425E-08
    0.24265036619145049932E-08
    0.14977342513155882339E-08
    0.79128824596570689870E-09
    0.12074450818713451812E-08
    0.72273989745928920664E-09
    0.10614886797306126430E-08
    0.14144489995396817468E-08
    0.11944818497255943762E-08
    0.96110610552044851940E-09
    0.95074400714274532798E-09
    0.27003195499604805144E-08
    0.32049300845681958813E-08
    0.27847526118250294400E-08
    0.29566835052825743788E-08
    0.26439381782820517787E-08
    0.17289010752181608498E-08
    0.18523691950780723216E-08
    0.27996639413420674592E-08
    0.23744984545036770156E-08
    0.34276591411626528351E-08
    0.24824086013425727407E-08
    0.32987739195989347203E-08
    0.23273308124753530336E-08
    0.23608871247066040162E-08
    0.91643260484100835009E-08
    0.15457350600867100314E-07
    0.36493771942262120774E-07
    0.44406140147020447356E-07
    0.20194084383570352534E-07
    0.18058885157136893211E-07
    0.66655111915828653150E-08
    0.52912519992868976442E-08
    0.19769760399581414252E-08
    0.21222902204986867877E-08
    0.44271360711545221868E-08
    0.39869727334966706003E-08
    0.78575181228860760404E-08
    0.86292183436511638032E-08
    0.21335453426278675473E-07
    0.29742400949123996376E-07
    0.69517295592188881841E-07
    0.69639083308331800712E-07
    0.29715555524673049134E-07
    0.21200622056749789014E-07
    0.78051926899126462106E-08
    0.71441554464239543502E-08
    0.23074105337973033794E-08
    0.24666276108170465067E-08
    0.71298366032357006123E-08
    0.77265511127433719457E-08
    0.13709888287990916568E-07
    0.13724674450521671478E-07
    0.28313219978479291765E-06
    0.33824579346914289628E-06
    0.73648200441787576831E-06
    0.66532604557274995688E-06
    0.29017104028741381442E-06
    0.19110739681130906711E-06
    0.75025771627673810069E-07
    0.74168469626344561282E-07
    0.28309575623422459884E-07
    0.31068157360110053272E-07
    0.86465373930233608966E-07
    0.10911850221075953796E-06
    0.16120658833564623840E-06
    0.15291632030389272400E-06
    0.19124423691555081635E-06
    0.29020063958210251476E-06
    0.66520646096466902399E-06
    0.73660670393424942269E-06
    0.33822372375224792168E-06
    0.28300452163729808175E-06
    0.10920735979981298966E-06
    0.86487459136995730230E-07
    0.30918270514146245487E-07
    0.28475898147659352970E-07
    0.74158755936966743731E-07
    0.74950020819991207880E-07
    0.15290583346683605057E-06
    0.16122642369554517080E-06
    0.27787838426572641279E-05
    0.36825716615817622560E-05
    0.77962999110228686181E-05
    0.77964224290816551985E-05
    0.36825468937175390361E-05
    0.27786542641692434024E-05
    0.11554003171980917521E-05
    0.10358503846798207202E-05
    0.41410953425409865841E-06
    0.41426654475822998656E-06
    0.10358329177159192070E-05
    0.11553143572839356772E-05
    0.19529609037545385698E-05
    0.19529764460617712349E-05
    0.63642003020261161456E-08
    0.64828346647829271651E-08
    0.10907992078268499476E-07
    0.83630699001656405597E-08
    0.53949086582016127358E-08
    0.36603728134233049072E-08
    0.41068188786820618825E-08
    0.30200153579096472692E-08
    0.34752670890163856755E-08
    0.27680756707550038974E-08
    0.37008149588988273201E-08
    0.33126048928311679053E-08
    0.38504751239590653927E-08
    0.35754300162096983884E-08
    0.24913495883457705014E-07
    0.20126376479872968810E-07
    0.36337146600224053593E-07
    0.24137300974134521833E-07
    0.11915710849011828802E-07
    0.67966284379072797952E-08
    0.59667944202265813878E-08
    0.51009043489734140335E-08
    0.46740009646764609670E-08
    0.41805855946975669035E-08
    0.75677531962450146816E-08
    0.10473384768019524086E-07
    0.94638671787002814657E-08
    0.79792843245281760840E-08
    0.13736213658545466747E-06
    0.12997481453973348137E-06
    0.26564635982226234271E-06
    0.19996020965842069534E-06
    0.84156362331672895203E-07
    0.45303915911113639267E-07
    0.18726801406838777679E-07
    0.22614909717606410641E-07
    0.95752331069775790584E-08
    0.12114600380110946383E-07
    0.34477641195167396658E-07
    0.52519380629506750925E-07
    0.56791900055303308349E-07
    0.48917754995233354859E-07
    0.64363570273338154524E-06
    0.53104789124367746246E-06
    0.98506392327010546361E-06
    0.68322126680069806057E-06
    0.29622326259668745199E-06
    0.14793733654401478287E-06
    0.64294784207451714492E-07
    0.87217976995461719707E-07
    0.40618075791799398734E-07
    0.56455465531435556025E-07
    0.15737280394723693414E-06
    0.26311637111573435423E-06
    0.23542416918947278202E-06
    0.19342774723451426539E-06
    0.68448932657709739104E-07
    0.47530680212143644562E-07
    0.80448098146128262837E-07
    0.48846023415528804204E-07
    0.22636037951562894592E-07
    0.11481182008893123472E-07
    0.90869637421468016265E-08
    0.91473887839172719174E-08
    0.73941908927621667033E-08
    0.76839870639786884826E-08
    0.16676977103704229288E-07
    0.28773434879182507944E-07
    0.20920977101627474721E-07
    0.16471088082857269777E-07
    0.12104123768653252990E-06
    0.74307591529497875952E-07
    0.11342875423785423380E-06
    0.64107642683654551417E-07
    0.29987925448187197771E-07
    0.14130234238935239244E-07
    0.11348910632403381918E-07
    0.12929787577667169777E-07
    0.10602901791103612142E-07
    0.12322859222212767718E-07
    0.27919820028552461628E-07
    0.53756973755652747446E-07
    0.32398901374682300492E-07
    0.24275566143523432198E-07
    0.18735238799682974128E-05
    0.13617281608804167399E-05
    0.22694926064163803324E-05
    0.14604503078588485077E-05
    0.65562465048651282561E-06
    0.30534965644173635162E-06
    0.14275567631027462776E-06
    0.21714054443578549329E-06
    0.11357397893379873547E-06
    0.17080588485770013979E-06
    0.45678553382734218230E-06
    0.82287682511643864568E-06
    0.61177116443773637536E-06
    0.48092127268729301832E-06
    0.33968355602977842356E-05
    0.21911537256826666698E-05
    0.32507748593208652210E-05
    0.19496349201266009077E-05
    0.90846070201639699819E-06
    0.39605792955991701391E-06
    0.20074704245160319715E-06
    0.34162980156366526324E-06
    0.20205114411401230901E-06
    0.32693757111922948722E-06
    0.83548179838475521200E-06
    0.16105304627592009687E-05
    0.99754723592377319030E-06
    0.75120107124919505217E-06
    0.23281476480612293023E-05
    0.23928227338729991355E-05
    0.47453724064665698683E-05
    0.38852696272106256799E-05
    0.17523453036274181090E-05
    0.10555699776366307483E-05
    0.44765154444319887644E-06
    0.50062104528904800576E-06
    0.21572178528754049312E-06
    0.25771202656624220034E-06
    0.68596004434533266930E-06
    0.95661882042773571030E-06
    0.11514326603632411810E-05
    0.10367834431822911708E-05
    0.11571492789243694848E-04
    0.10295850108951629483E-04
    0.18404654915161427733E-04
    0.13816544480790304792E-04
    0.64656805349053491502E-05
    0.35928177218681024139E-05
    0.16508899432133747858E-05
    0.20846291571318581604E-05
    0.10133554888985060879E-05
    0.13163869375861429385E-05
    0.33466934331346738697E-05
    0.51020355093687570433E-05
    0.50096980923666237456E-05
    0.42977496168438810751E-05
    0.25514119294706837256E-04
    0.28965038488592139917E-04
    0.55914843907945742450E-04
    0.50008161233116138727E-04
    0.24358202872489538701E-04
    0.16515447189180990041E-04
    0.74424023741330566214E-05
    0.76469275394590584564E-05
    0.34313399266166953233E-05
    0.37723943252111819751E-05
    0.90803333534034200695E-05
    0.11262414673282975200E-04
    0.15358846103035329184E-04
    0.14509982523853856023E-04
    0.13895551098047515003E-03
    0.13379126411604050080E-03
    0.23117213553495777052E-03
    0.18731839885493644900E-03
    0.94781054099941228143E-04
    0.58641594660403157139E-04
    0.28770580646741070581E-04
    0.33702460700708536064E-04
    0.17144816442107511223E-04
    0.20690965606240606210E-04
    0.47675488970361948966E-04
    0.65815758236975694523E-04
    0.71361510170833580857E-04
    0.63861178066914909158E-04
    0.34851219465342751812E-04
    0.27181752466510707177E-04
    0.43499101543762457728E-04
    0.30217084426001483965E-04
    0.14695840586031045901E-04
    0.75839303552415759471E-05
    0.37839410103235617137E-05
    0.53722952924833810288E-05
    0.29545661451973107777E-05
    0.41508369093834696900E-05
    0.10057495460738549942E-04
    0.16587677251959627531E-04
    0.13400994932365099083E-04
    0.10988787844478627918E-04
    0.64409451629186982840E-04
    0.44406019985065233076E-04
    0.63076846954983513275E-04
    0.40729541031300160237E-04
    0.20629021542384966926E-04
    0.99257634002827016014E-05
    0.53958480171818843174E-05
    0.85977677121800917569E-05
    0.53685368921022723766E-05
    0.81258844116647149103E-05
    0.18750727650790589244E-04
    0.33240631373295449378E-04
    0.22196229888993162415E-04
    0.17418159020744317865E-04
    0.43538288487564985856E-03
    0.36428939073728449586E-03
    0.55991404628313173886E-03
    0.41919885296057659337E-03
    0.22120723736728634709E-03
    0.12655029484392993746E-03
    0.67692186680778476237E-04
    0.89519310185438540550E-04
    0.51773638050633453457E-04
    0.67889644454827868152E-04
    0.14873888524346277375E-03
    0.22427104253946430947E-03
    0.19704859355782459616E-03
    0.16825358794231540130E-03
    0.81787102949715847610E-03
    0.60341821475363402634E-03
    0.82018469877898742514E-03
    0.57014038787423328754E-03
    0.31447729739788980730E-03
    0.16708584842992874682E-03
    0.97753041929979762837E-04
    0.14557204539565553173E-03
    0.95916538189276192997E-04
    0.13580663772035718754E-03
    0.28254748997896654301E-03
    0.45992100948872508947E-03
    0.33150262901258351371E-03
    0.27068931823517688139E-03
    0.38511115253625206109E-08
    0.54061569396701942899E-08
    0.83225545931337488781E-08
    0.11109671533817632655E-07
    0.65410796453822346695E-08
    0.63094005621666024982E-08
    0.34867448610876933249E-08
    0.37533887150068517080E-08
    0.26979563776845639511E-08
    0.37288011049525116100E-08
    0.30917601845874192462E-08
    0.39187756405096003349E-08
    0.36302458691039342237E-08
    0.39390109898467698506E-08
    0.45478477788560074363E-07
    0.84212383489953039241E-07
    0.19985774233339940006E-06
    0.26578454044158013244E-06
    0.12996942358256135189E-06
    0.13724769175950662733E-06
    0.52626769556297227250E-07
    0.34526279913935878204E-07
    0.12003601932927168338E-07
    0.97903185556237049695E-08
    0.22646169843931374683E-07
    0.18703130830896622726E-07
    0.48935284391243035021E-07
    0.56836250409631989436E-07
    0.69873827087716750405E-08
    0.11926985734306133304E-07
    0.24096809243811206932E-07
    0.36538860201178817333E-07
    0.20184688046022590444E-07
    0.24858805141128220963E-07
    0.10647697942464665155E-07
    0.76204442256418585553E-08
    0.41106134414410592160E-08
    0.49276356426324536723E-08
    0.51727075542980036436E-08
    0.57787813459105180965E-08
    0.80341558490306735860E-08
    0.95524721320517449690E-08
    0.14811192792078725219E-06
    0.29627933913570557161E-06
    0.68311888884604454719E-06
    0.98520220979753888015E-06
    0.53104261868134344606E-06
    0.64352142130363193105E-06
    0.26322397475824670234E-06
    0.15742158693858389333E-06
    0.56344632681151174021E-07
    0.40833273999605243356E-07
    0.87249308036981188676E-07
    0.64271147306798361772E-07
    0.19344535219165899445E-06
    0.23546861586450851619E-06
    0.10557070731499428758E-05
    0.17523752198068166107E-05
    0.38851500949247695036E-05
    0.47454969852776312459E-05
    0.23928012602348726049E-05
    0.23280210035911667893E-05
    0.95670933768205334801E-06
    0.68598334920605371256E-06
    0.25756363249322022225E-06
    0.21588919222737227350E-06
    0.50061200307418372186E-06
    0.44757618665371114700E-06
    0.10367735702989090517E-05
    0.11514532318256031973E-05
    0.16515573199151782142E-04
    0.24358222147137968081E-04
    0.50008024492256658545E-04
    0.55914952524956920352E-04
    0.28965009892591318325E-04
    0.25513989677012096198E-04
    0.11262502068980281014E-04
    0.90803513891630649338E-05
    0.37722386125782062388E-05
    0.34314978223589670868E-05
    0.76469098209662037565E-05
    0.74423156396560223225E-05
    0.14509965346392832136E-04
    0.15358860383287995855E-04
    0.35929550477359130637E-05
    0.64657106756887492362E-05
    0.13816425356578108081E-04
    0.18404778184848369577E-04
    0.10295828033611704436E-04
    0.11571364595231008199E-04
    0.51021258514047950321E-05
    0.33467168019918873699E-05
    0.13162387271864990530E-05
    0.10135230565308985532E-05
    0.20846202678297185919E-05
    0.16508147222308717204E-05
    0.42977398584224652098E-05
    0.50097186647298836518E-05
    0.58641716590642872483E-04
    0.94781053470054623029E-04
    0.18731822881136293455E-03
    0.23117214709551477982E-03
    0.13379117900701008185E-03
    0.13895531761975332035E-03
    0.65815822378541722227E-04
    0.47675491405284255338E-04
    0.20690804833521344778E-04
    0.17144970978709200073E-04
    0.33702435298585436312E-04
    0.28770490796986586011E-04
    0.63861142096133664586E-04
    0.71361499513762530027E-04
    0.11671936617420921531E-07
    0.22647312478486639900E-07
    0.48805532671908002101E-07
    0.80649813858125896696E-07
    0.47588996168724200736E-07
    0.68394256042762417711E-07
    0.28947763501645200622E-07
    0.16729675370520908226E-07
    0.76140248669377439939E-08
    0.76478300247098358511E-08
    0.92191926981349772963E-08
    0.88989500776540397952E-08
    0.16525961303653393180E-07
    0.21009584503473545564E-07
    0.30552425578644619121E-06
    0.65568076428881973028E-06
    0.14603480065765529770E-05
    0.22696310436028489129E-05
    0.13617230127231584691E-05
    0.18734097947515641669E-05
    0.82298453027688987868E-06
    0.45683436962017911574E-06
    0.17069507672775878887E-06
    0.11378919269519752262E-06
    0.21717189522627486978E-06
    0.14273204804758207510E-06
    0.48093891837654432419E-06
    0.61181566870338123242E-06
    0.14320987115596730843E-07
    0.29999197408191215126E-07
    0.64067141965336208448E-07
    0.11363046237577704897E-06
    0.74365904835581010355E-07
    0.12098656080137656319E-06
    0.53931303736696882717E-07
    0.27972520538902465766E-07
    0.12252894838027253149E-07
    0.10856540296201482316E-07
    0.13001592347750298172E-07
    0.11160895617427790197E-07
    0.24330437874236324048E-07
    0.32487508701034855919E-07
    0.39623250266299933486E-06
    0.90851677439707626986E-06
    0.19495325156050199957E-05
    0.32509131371741565207E-05
    0.21911485440725881715E-05
    0.33967215076180107020E-05
    0.16106382174055196894E-05
    0.83553064782188939211E-06
    0.32682676692890587191E-06
    0.20226635647570239895E-06
    0.34166114432336559836E-06
    0.20072340118022845667E-06
    0.75121869868099031079E-06
    0.99759172648479257308E-06
    0.75840681672708982729E-05
    0.14695872545704685691E-04
    0.30216969960582139483E-04
    0.43499234012608998384E-04
    0.27181734961498778123E-04
    0.34851095721263037589E-04
    0.16587769072124464994E-04
    0.10057519917567207132E-04
    0.41506890621857723755E-05
    0.29547339997272574491E-05
    0.53722870098234354517E-05
    0.37838660638467484761E-05
    0.10988779514967937317E-04
    0.13401017394693439077E-04
    0.12655045517370532666E-03
    0.22120733984993894670E-03
    0.41919891943823807661E-03
    0.55991446744553985577E-03
    0.36428949018020009495E-03
    0.43538281642961342227E-03
    0.22427111698380145172E-03
    0.14873891128066774503E-03
    0.67889486771965644484E-04
    0.51773799261029133164E-04
    0.89519310817921091583E-04
    0.67692114154581378574E-04
    0.16825361576806703253E-03