# vtk DataFile Version 3.0
LAPLACIEN  2D
ASCII
DATASET UNSTRUCTURED_GRID
 POINTS        1857  float
   3.1250000000000000E-002  0.93750000000000000        0.0000000000000000     
   6.2500000000000000E-002  0.93750000000000000        0.0000000000000000     
   6.2500000000000000E-002  0.96875000000000000        0.0000000000000000     
   1.8749999999999999E-002  0.95625000000000004        0.0000000000000000     
   4.0625000000000001E-002  0.95937499999999998        0.0000000000000000     
   4.3749999999999997E-002  0.98124999999999996        0.0000000000000000     
   2.1874999999999999E-002  0.97812500000000002        0.0000000000000000     
   9.3750000000000000E-002  0.93750000000000000        0.0000000000000000     
  0.12500000000000000       0.93750000000000000        0.0000000000000000     
  0.12500000000000000       0.96875000000000000        0.0000000000000000     
   8.1250000000000003E-002  0.95625000000000004        0.0000000000000000     
  0.10312499999999999       0.95937499999999998        0.0000000000000000     
  0.10625000000000000       0.98124999999999996        0.0000000000000000     
   8.4375000000000006E-002  0.97812500000000002        0.0000000000000000     
   3.1250000000000000E-002  0.87500000000000000        0.0000000000000000     
   6.2500000000000000E-002  0.87500000000000000        0.0000000000000000     
   6.2500000000000000E-002  0.90625000000000000        0.0000000000000000     
   1.8749999999999999E-002  0.89375000000000004        0.0000000000000000     
   4.0625000000000001E-002  0.89687499999999998        0.0000000000000000     
   4.3749999999999997E-002  0.91874999999999996        0.0000000000000000     
   2.1874999999999999E-002  0.91562500000000002        0.0000000000000000     
   9.3750000000000000E-002  0.87500000000000000        0.0000000000000000     
  0.12500000000000000       0.87500000000000000        0.0000000000000000     
  0.12500000000000000       0.90625000000000000        0.0000000000000000     
   8.1250000000000003E-002  0.89375000000000004        0.0000000000000000     
  0.10312499999999999       0.89687499999999998        0.0000000000000000     
  0.10625000000000000       0.91874999999999996        0.0000000000000000     
   8.4375000000000006E-002  0.91562500000000002        0.0000000000000000     
  0.15625000000000000       0.93750000000000000        0.0000000000000000     
  0.18750000000000000       0.93750000000000000        0.0000000000000000     
  0.18750000000000000       0.96875000000000000        0.0000000000000000     
  0.14374999999999999       0.95625000000000004        0.0000000000000000     
  0.16562499999999999       0.95937499999999998        0.0000000000000000     
  0.16875000000000001       0.98124999999999996        0.0000000000000000     
  0.14687500000000001       0.97812500000000002        0.0000000000000000     
  0.21875000000000000       0.93750000000000000        0.0000000000000000     
  0.25000000000000000       0.93750000000000000        0.0000000000000000     
  0.25000000000000000       0.96875000000000000        0.0000000000000000     
  0.20624999999999999       0.95625000000000004        0.0000000000000000     
  0.22812499999999999       0.95937499999999998        0.0000000000000000     
  0.23125000000000001       0.98124999999999996        0.0000000000000000     
  0.20937500000000001       0.97812500000000002        0.0000000000000000     
  0.15625000000000000       0.87500000000000000        0.0000000000000000     
  0.18750000000000000       0.87500000000000000        0.0000000000000000     
  0.18750000000000000       0.90625000000000000        0.0000000000000000     
  0.14374999999999999       0.89375000000000004        0.0000000000000000     
  0.16562499999999999       0.89687499999999998        0.0000000000000000     
  0.16875000000000001       0.91874999999999996        0.0000000000000000     
  0.14687500000000001       0.91562500000000002        0.0000000000000000     
  0.21875000000000000       0.87500000000000000        0.0000000000000000     
  0.25000000000000000       0.87500000000000000        0.0000000000000000     
  0.25000000000000000       0.90625000000000000        0.0000000000000000     
  0.20624999999999999       0.89375000000000004        0.0000000000000000     
  0.22812499999999999       0.89687499999999998        0.0000000000000000     
  0.23125000000000001       0.91874999999999996        0.0000000000000000     
  0.20937500000000001       0.91562500000000002        0.0000000000000000     
   3.1250000000000000E-002  0.81250000000000000        0.0000000000000000     
   6.2500000000000000E-002  0.81250000000000000        0.0000000000000000     
   6.2500000000000000E-002  0.84375000000000000        0.0000000000000000     
   1.8749999999999999E-002  0.83125000000000004        0.0000000000000000     
   4.0625000000000001E-002  0.83437499999999998        0.0000000000000000     
   4.3749999999999997E-002  0.85624999999999996        0.0000000000000000     
   2.1874999999999999E-002  0.85312500000000002        0.0000000000000000     
   9.3750000000000000E-002  0.81250000000000000        0.0000000000000000     
  0.12500000000000000       0.81250000000000000        0.0000000000000000     
  0.12500000000000000       0.84375000000000000        0.0000000000000000     
   8.1250000000000003E-002  0.83125000000000004        0.0000000000000000     
  0.10312499999999999       0.83437499999999998        0.0000000000000000     
  0.10625000000000000       0.85624999999999996        0.0000000000000000     
   8.4375000000000006E-002  0.85312500000000002        0.0000000000000000     
   3.1250000000000000E-002  0.75000000000000000        0.0000000000000000     
   6.2500000000000000E-002  0.75000000000000000        0.0000000000000000     
   6.2500000000000000E-002  0.78125000000000000        0.0000000000000000     
   1.8749999999999999E-002  0.76875000000000004        0.0000000000000000     
   4.0625000000000001E-002  0.77187499999999998        0.0000000000000000     
   4.3749999999999997E-002  0.79374999999999996        0.0000000000000000     
   2.1874999999999999E-002  0.79062500000000002        0.0000000000000000     
   9.3750000000000000E-002  0.75000000000000000        0.0000000000000000     
  0.12500000000000000       0.75000000000000000        0.0000000000000000     
  0.12500000000000000       0.78125000000000000        0.0000000000000000     
   8.1250000000000003E-002  0.76875000000000004        0.0000000000000000     
  0.10312499999999999       0.77187499999999998        0.0000000000000000     
  0.10625000000000000       0.79374999999999996        0.0000000000000000     
   8.4375000000000006E-002  0.79062500000000002        0.0000000000000000     
  0.15625000000000000       0.81250000000000000        0.0000000000000000     
  0.18750000000000000       0.81250000000000000        0.0000000000000000     
  0.18750000000000000       0.84375000000000000        0.0000000000000000     
  0.14374999999999999       0.83125000000000004        0.0000000000000000     
  0.16562499999999999       0.83437499999999998        0.0000000000000000     
  0.16875000000000001       0.85624999999999996        0.0000000000000000     
  0.14687500000000001       0.85312500000000002        0.0000000000000000     
  0.21875000000000000       0.81250000000000000        0.0000000000000000     
  0.25000000000000000       0.81250000000000000        0.0000000000000000     
  0.25000000000000000       0.84375000000000000        0.0000000000000000     
  0.20624999999999999       0.83125000000000004        0.0000000000000000     
  0.22812499999999999       0.83437499999999998        0.0000000000000000     
  0.23125000000000001       0.85624999999999996        0.0000000000000000     
  0.20937500000000001       0.85312500000000002        0.0000000000000000     
  0.15625000000000000       0.75000000000000000        0.0000000000000000     
  0.18750000000000000       0.75000000000000000        0.0000000000000000     
  0.18750000000000000       0.78125000000000000        0.0000000000000000     
  0.14374999999999999       0.76875000000000004        0.0000000000000000     
  0.16562499999999999       0.77187499999999998        0.0000000000000000     
  0.16875000000000001       0.79374999999999996        0.0000000000000000     
  0.14687500000000001       0.79062500000000002        0.0000000000000000     
  0.21875000000000000       0.75000000000000000        0.0000000000000000     
  0.25000000000000000       0.75000000000000000        0.0000000000000000     
  0.25000000000000000       0.78125000000000000        0.0000000000000000     
  0.20624999999999999       0.76875000000000004        0.0000000000000000     
  0.22812499999999999       0.77187499999999998        0.0000000000000000     
  0.23125000000000001       0.79374999999999996        0.0000000000000000     
  0.20937500000000001       0.79062500000000002        0.0000000000000000     
  0.28125000000000000       0.93750000000000000        0.0000000000000000     
  0.31250000000000000       0.93750000000000000        0.0000000000000000     
  0.31250000000000000       0.96875000000000000        0.0000000000000000     
  0.26874999999999999       0.95625000000000004        0.0000000000000000     
  0.29062500000000002       0.95937499999999998        0.0000000000000000     
  0.29375000000000001       0.98124999999999996        0.0000000000000000     
  0.27187499999999998       0.97812500000000002        0.0000000000000000     
  0.34375000000000000       0.93750000000000000        0.0000000000000000     
  0.37500000000000000       0.93750000000000000        0.0000000000000000     
  0.37500000000000000       0.96875000000000000        0.0000000000000000     
  0.33124999999999999       0.95625000000000004        0.0000000000000000     
  0.35312500000000002       0.95937499999999998        0.0000000000000000     
  0.35625000000000001       0.98124999999999996        0.0000000000000000     
[...]
 CELL_DATA        3584
 SCALARS VEGF float
 LOOKUP_TABLE default
    0.86758484307604426630E-10
    0.81263201743917250541E-09
   -0.18313227570777279368E-09
   -0.53003842168706619361E-10
    0.88365307892629114440E-09
   -0.56525402970094758331E-10
    0.12401680551903629926E-08
    0.18356662067598187712E-09
    0.26284480693260016994E-09
    0.47859263985843235245E-09
    0.18107798202721082496E-09
    0.98461626879252143370E-09
    0.34111707883916117384E-09
    0.36988562314037535641E-09
   -0.40383235796063878557E-09
    0.16758895660887770146E-09
   -0.50519237819241198663E-09
   -0.21850871965917252113E-09
    0.59893089268901326585E-09
   -0.18195748354427929714E-09
    0.10056346431187924354E-08
   -0.86041638916402920734E-10
    0.76932045961889128602E-09
    0.44703984666520822150E-10
    0.53527698942244043987E-09
   -0.24836468553318407190E-09
   -0.13894054238284728896E-09
   -0.21703214526066173931E-09
   -0.29127260804632886023E-10
    0.55140620229543011849E-09
   -0.32102538466642090367E-09
   -0.34125390316573749603E-09
    0.18782929222787739314E-09
   -0.49833923857480552748E-09
   -0.13319549308678212125E-09
    0.52499207627063586474E-09
   -0.89283762427377766828E-10
    0.99336180089476946321E-09
   -0.49223233801610325010E-10
    0.76764687682099000537E-09
   -0.21120492445396646921E-09
   -0.98500304859458095225E-10
   -0.52442892786029397051E-09
   -0.10752733977450837279E-09
   -0.64269056489991188492E-09
   -0.50844186162874681991E-09
   -0.11994706691189092162E-09
   -0.64493028578463115834E-09
   -0.45969687354057196292E-09
   -0.89346373399090761130E-10
   -0.58060657829396996108E-09
   -0.38904099765674129645E-09
   -0.91373371900790618186E-10
   -0.53732651250155496437E-09
   -0.79672024552190037478E-09
   -0.78021677977384225223E-09
   -0.42876170561294525072E-09
    0.16054208302413406972E-09
   -0.50645658958179158081E-09
   -0.21888822955131630319E-09
    0.59792436313705778514E-09
   -0.18227660898036249009E-09
    0.10044035720675116224E-08
   -0.92123720238573897030E-10
    0.74681811942779999523E-09
   -0.12892416020503628586E-10
    0.50164856114996139301E-09
   -0.32921561201875895876E-09
   -0.14746898815414445418E-09
   -0.22143273790561284559E-09
   -0.42878014183932040771E-09
    0.16053856538414884251E-09
   -0.50645897994096983972E-09
   -0.21888953653244752341E-09
    0.59792111471652876389E-09
   -0.18228757445453937199E-09
    0.10043971720334444235E-08
   -0.92128893207715414341E-10
    0.74679961192821080848E-09
   -0.12980862128148355332E-10
    0.50161705301875755512E-09
   -0.32933342911045562156E-09
   -0.14747454488779358549E-09
   -0.22143520123185611690E-09
   -0.54915493067548949269E-09
   -0.11451195355356300194E-09
   -0.64394078610648490176E-09
   -0.50881593979629531251E-09
   -0.12095285849461917597E-09
   -0.64524878296570581230E-09
   -0.46096199110894976413E-09
   -0.95751752906610768757E-10
   -0.60510204570315999599E-09
   -0.45348201215378912767E-09
   -0.12608817789661431019E-09
   -0.61822822533913091658E-09
   -0.80535799517671551614E-09
   -0.78466607621449131872E-09
   -0.54917490828459008563E-09
   -0.11451602855765812119E-09
   -0.64394276960089764363E-09
   -0.50881903120689924547E-09
   -0.12095618542759967274E-09
   -0.64526051545986477679E-09
   -0.46096622010645858542E-09
   -0.95756974551509450192E-10
   -0.60512161908772530622E-09
   -0.45356932685397480452E-09
   -0.12611617055617284916E-09
   -0.61834384407703427371E-09
   -0.80536176465379782599E-09
   -0.78466928046170475389E-09
   -0.29395842398965947344E-10
    0.55061125808984635629E-09
   -0.32128138216195026457E-09
   -0.34210908291470536391E-09
    0.18265901400764654028E-09
   -0.51711013265907831598E-09
   -0.19797672832339535538E-09
    0.49688235238373886515E-09
   -0.14210590299742520109E-09
    0.97268523571147277840E-09
   -0.54694078308870542071E-10
    0.76654614328243359039E-09
   -0.21478372141612709122E-09
   -0.10536322084091688634E-09
   -0.52461793921525036019E-09
   -0.10814497944708658384E-09
   -0.64290462824475962237E-09
   -0.50921816929193705711E-09
   -0.12471778940809285754E-09
   -0.66308008811641269337E-09
   -0.52293969797390893925E-09
   -0.11534809113544248652E-09
   -0.63101761617927860497E-09
   -0.40727958289231601198E-09
   -0.95826600002061148738E-10
   -0.53815024714674100506E-09
   -0.79968193493978291591E-09
   -0.78624511016324211025E-09
   -0.29395953531910641029E-10
    0.55061116719126114778E-09
   -0.32128096615979656310E-09
   -0.34210896494265690484E-09
    0.18265747777211155764E-09
   -0.51712179074296657530E-09
   -0.19805194732605905869E-09
    0.49685958012388380988E-09
   -0.14217880794988340522E-09
    0.97266785984475773368E-09
   -0.54696913351962970019E-10
    0.76654576900308293988E-09
   -0.21478528729805769508E-09
   -0.10536586752326408255E-09
   -0.52461758575809199525E-09
   -0.10814480697457804195E-09
   -0.64290442036455572771E-09
   -0.50921839254234528814E-09
   -0.12471883209539306080E-09
   -0.66308970120830960116E-09
   -0.52299927437167446469E-09
   -0.11536257579285923105E-09
   -0.63106443471527398763E-09
   -0.40728865810764110101E-09
   -0.95827656552347693336E-10
   -0.53815028158466262897E-09
   -0.79968231558297399002E-09
   -0.78624621132034085544E-09
   -0.54933652421801241676E-09
   -0.11512252122238297137E-09
   -0.64415261411954550240E-09
   -0.50959130782607188658E-09
   -0.12571925052068385497E-09
   -0.66339809457050249055E-09
   -0.52419270089750064132E-09
   -0.12170571922041489151E-09
   -0.65533277751432404539E-09
   -0.47141332759876506990E-09
   -0.13045459764888801941E-09
   -0.61901192606388393774E-09
   -0.80829859320845887049E-09
   -0.79067835594003246665E-09
   -0.54935533791320258174E-09
   -0.11512617764785478740E-09
   -0.64415391285199026936E-09
   -0.50959349758368215407E-09
   -0.12572336041767423345E-09
   -0.66340887917549827604E-09
   -0.52419622383312892713E-09
   -0.12170927603760157025E-09
   -0.65535196806408614367E-09
   -0.47150088652454938117E-09
   -0.13048495558276507406E-09
   -0.61912657649679878187E-09
   -0.80830311556687557036E-09
   -0.79068064104499935421E-09
   -0.54933643517875262222E-09
   -0.11512228341603872715E-09
   -0.64415262142668449859E-09
   -0.50959141832673119716E-09
   -0.12572120260360435813E-09
   -0.66340805520270123748E-09
   -0.52425164551368682348E-09
   -0.12172005575104650204E-09
   -0.65537735570950834887E-09
   -0.47142275860266705822E-09
   -0.13045579298005075829E-09
   -0.61901199427197271136E-09
   -0.80829853462805480354E-09
   -0.79067980405759360705E-09
   -0.54935838802493766357E-09
   -0.11513612819642087696E-09
   -0.64420413928489651318E-09
   -0.50964494764232725551E-09
   -0.12573389300511759201E-09
   -0.66342059986996881586E-09
   -0.52425493865344158037E-09
   -0.12172471411117518239E-09
   -0.65539598533030669472E-09
   -0.47151025241572724876E-09
   -0.13048735897521364977E-09
   -0.61912676483359149970E-09
   -0.80830561990065623202E-09
   -0.79068438028881794185E-09
   -0.42878540143992877208E-09
    0.16053593408260203708E-09
   -0.50645862060859708216E-09
   -0.21888916355485992834E-09
    0.59791956302831653928E-09
   -0.18228865003381057533E-09
    0.10043971892966289476E-08
   -0.92131202481414959799E-10
    0.74678850309753083259E-09
   -0.12999129286011204708E-10
    0.50161015396218389893E-09
   -0.32933526120971752544E-09
   -0.14747809357948320881E-09
   -0.22143829386773043119E-09
   -0.42878524129351207613E-09
    0.16053516579742259896E-09
   -0.50645905184905641505E-09
   -0.21888925391252485093E-09
    0.59792021100741535173E-09
   -0.18228867770471102037E-09
    0.10043970161947782347E-08
   -0.92131540818224475858E-10
    0.74678827038701362345E-09
   -0.12999171303623080342E-10
    0.50161016599016776202E-09
   -0.32933538873446930189E-09
   -0.14747885011966944645E-09
   -0.22143826721889321364E-09
   -0.54917768527067912472E-09
   -0.11451799748497287468E-09
   -0.64394242781249090606E-09
   -0.50881560104637080884E-09
   -0.12095659368109400818E-09
   -0.64526118763576718993E-09
   -0.46096740299863442078E-09
   -0.95759005265394180173E-10
   -0.60512938276626245740E-09
   -0.45358768192162621427E-09
   -0.12612521604604747676E-09
   -0.61834681490631664429E-09
   -0.80536508436499991970E-09
   -0.78466982651507019978E-09
   -0.54917761383095637768E-09
   -0.11451705761966140156E-09
   -0.64394198297644098082E-09
   -0.50881522860269999409E-09
   -0.12095654837512921171E-09
   -0.64526103649197353413E-09
   -0.46096645353703672458E-09
   -0.95759245843927230870E-10
   -0.60512892461451855920E-09
   -0.45358849570828518489E-09
   -0.12612385418522614876E-09
   -0.61834538360217607958E-09
   -0.80536438392930288502E-09
   -0.78466973444376322291E-09
   -0.42878553926678266921E-09
    0.16053495139220058738E-09
   -0.50645910017135651169E-09
   -0.21888915735455063030E-09
    0.59792007166906512633E-09
   -0.18228887157956727476E-09
    0.10043969051710871427E-08
   -0.92131922644105361705E-10
    0.74678824971664475585E-09
   -0.12999309821170255718E-10
    0.50161001330762088430E-09
   -0.32933584707755475823E-09
   -0.14747922568557959860E-09
   -0.22143852324069101812E-09
   -0.42878543501815026332E-09
    0.16053573696755752098E-09
   -0.50645796243323835449E-09
   -0.21888738627890869077E-09
    0.59792124338992178861E-09
   -0.18228661468814971885E-09
    0.10043984955239827098E-08
   -0.92130882289799937140E-10
    0.74678825664947490888E-09
   -0.12999358736927877514E-10
    0.50161013222671742227E-09
   -0.32933540265760144483E-09
   -0.14747873284470950913E-09
   -0.22143792818487011646E-09
   -0.54917704483453361183E-09
   -0.11451714017216700676E-09
   -0.64394199046182943740E-09
   -0.50881509564483823609E-09
   -0.12095647915734418113E-09
   -0.64526124463306595468E-09
   -0.46096731462895691108E-09
   -0.95759286949281933974E-10
   -0.60512902314678864751E-09
   -0.45358832102263743992E-09
   -0.12612364691367239877E-09
   -0.61834517438779210222E-09
   -0.80536425328061403466E-09
   -0.78466934468796071205E-09
   -0.54917697382940711254E-09
   -0.11451696862860441984E-09
   -0.64394303514585451066E-09
   -0.50881486979458520978E-09
   -0.12095559392380337038E-09
   -0.64525795265673183715E-09
   -0.46096516109172875021E-09
   -0.95758906061260184399E-10
   -0.60512909200988266393E-09
   -0.45358862576691229331E-09
   -0.12612365482498690610E-09
   -0.61834479324432932807E-09
   -0.80536453509530385872E-09
   -0.78466966601712040676E-09
   -0.54935936934344693585E-09
   -0.11512869781318198770E-09
   -0.64415940896976374701E-09
   -0.50959517523021459104E-09
   -0.12572538937082872220E-09
   -0.66341004995256729520E-09
   -0.52419626482070717308E-09
   -0.12171210515181489333E-09
   -0.65535782755875504162E-09
   -0.47151848764707702969E-09
   -0.13049333110242080255E-09
   -0.61912854767631344774E-09
   -0.80830670366200090464E-09
   -0.79068321145437700780E-09
   -0.54937183093962167247E-09
   -0.11513137296714255571E-09
   -0.64416602935584018659E-09
   -0.50959772119907910842E-09
   -0.12572577697385429441E-09
   -0.66340981395847392648E-09
   -0.52419607961719934215E-09
   -0.12171236631816201515E-09
   -0.65535792341233895874E-09
   -0.47151902305803835430E-09
   -0.13049467698730801065E-09
   -0.61913147728234192514E-09
   -0.80830730661662148455E-09
   -0.79068345367587325175E-09
   -0.55019562904594807450E-09
   -0.11604546371740123486E-09
   -0.64754689232894656044E-09
   -0.51121012232311085203E-09
   -0.12608431344092463914E-09
   -0.66349917103507111638E-09
   -0.52427064037661993137E-09
   -0.12175169300356693963E-09
   -0.65540738346164873397E-09
   -0.47153524253571296506E-09
   -0.13055689565180471009E-09
   -0.61928007861485080613E-09
   -0.80850122433000099962E-09
   -0.79080990139792867056E-09
   -0.56055289161821957816E-09
   -0.12028001048426830433E-09
   -0.65547523678072471226E-09
   -0.51367224227233296741E-09
   -0.12672152845124941578E-09
   -0.66360540461537905812E-09
   -0.52429909740466795214E-09
   -0.12185907439776654954E-09
   -0.65544321960818495007E-09
   -0.47164513543490112577E-09
   -0.13126484487546857226E-09
   -0.62175301100468211191E-09
   -0.80949540607554877744E-09
   -0.79129928491825839114E-09
   -0.54937578318737002735E-09
   -0.11513249858835265922E-09
   -0.64416700882891850785E-09
   -0.50959736133891052613E-09
   -0.12572560261715363499E-09
   -0.66340972479886255813E-09
   -0.52419598209972714723E-09
   -0.12171191506145418100E-09
   -0.65535767359288676416E-09
   -0.47151905133970414823E-09
   -0.13049471253854846120E-09
   -0.61913380425088993890E-09
   -0.80830703561422585830E-09
   -0.79068280909518281005E-09
   -0.54937555392059130693E-09
   -0.11513168022542267368E-09
   -0.64416545760525546474E-09
   -0.50959468744937038425E-09
   -0.12572478644164105099E-09
   -0.66340771207997421009E-09
   -0.52419618888717592526E-09
   -0.12171247188966239528E-09
   -0.65535766721338222810E-09
   -0.47151912617564778689E-09
   -0.13049453942943355148E-09
   -0.61913317915622408844E-09
   -0.80830664553525174033E-09
   -0.79068224788800885270E-09
   -0.56411873240984889501E-09
   -0.12109742849713799310E-09
   -0.65502179556185830735E-09
   -0.51365181759634323540E-09
   -0.12674936062829397234E-09
   -0.66360950124037727655E-09
   -0.52430206926409634558E-09
   -0.12188033991226111969E-09
   -0.65545878102211706951E-09
   -0.47171732761661761501E-09
   -0.13162325033313221452E-09
   -0.62334552404631311791E-09
   -0.80972105808153720913E-09
   -0.79138956381376015638E-09
   -0.56087980242059689597E-09
   -0.12052500131627209288E-09
   -0.65186743775207672996E-09
   -0.51329754575769123603E-09
   -0.12671453027830355887E-09
   -0.66360597952464000976E-09
   -0.52430056880686992267E-09
   -0.12187877821982226780E-09
   -0.65545874643034564193E-09
   -0.47171775198962332477E-09
   -0.13160239836624072176E-09
   -0.62311590049190378681E-09
   -0.80967182577560995406E-09
   -0.79137679061594285985E-09
   -0.29396036864708746139E-10
    0.55061114612030659730E-09
   -0.32128088940847744198E-09
   -0.34210902778958991535E-09
    0.18265706948894563325E-09
   -0.51712237540123915675E-09
   -0.19805207842960692817E-09
    0.49685976717615395834E-09
   -0.14217893263103902654E-09
    0.97266770006111252079E-09
   -0.54697024468470189065E-10
    0.76654522804630046876E-09
   -0.21478536299170180896E-09
   -0.10536615252224298275E-09
   -0.52461790545479451766E-09
   -0.10814477881679702040E-09
   -0.64290457381672261429E-09
   -0.50921848705155195015E-09
   -0.12471906264244915631E-09
   -0.66308985359244724720E-09
   -0.52299896890618135220E-09
   -0.11536251328160045581E-09
   -0.63106430298799352408E-09
   -0.40728969772504135485E-09
   -0.95827399768234815379E-10
   -0.53815039224303126456E-09
   -0.79968262163321534639E-09
   -0.78624635588215952907E-09
   -0.29395779609235681514E-10
    0.55061120171508909721E-09
   -0.32128091056728250262E-09
   -0.34210904055236772575E-09
    0.18265731111633904778E-09
   -0.51712207646600310959E-09
   -0.19805188435231305642E-09
    0.49685939277239679127E-09
   -0.14217883538554278304E-09
    0.97266799818664111186E-09
   -0.54697085689835718004E-10
    0.76654583103731451408E-09
   -0.21478573870708856428E-09
   -0.10536624844081051898E-09
   -0.52461815473743927171E-09
   -0.10814494552996211290E-09
   -0.64290455918092055521E-09
   -0.50921824506054358683E-09
   -0.12471865239870832604E-09
   -0.66308953422717604050E-09
   -0.52299903107789840921E-09
   -0.11536236044447037541E-09
   -0.63106420557015006406E-09
   -0.40728936457192029248E-09
   -0.95827414021694039612E-10
   -0.53815084373607876518E-09
   -0.79968228698184835518E-09
   -0.78624603842937921924E-09
   -0.54933656622512757722E-09
   -0.11512304001365686436E-09
   -0.64415412858844615309E-09
   -0.50959736263614758531E-09
   -0.12572244517114210734E-09
   -0.66340858338128621761E-09
   -0.52425193716966017128E-09
   -0.12172002750992744737E-09
   -0.65537727905853181952E-09
   -0.47142286988312845401E-09
   -0.13045611833838819158E-09
   -0.61901165700616728752E-09
   -0.80829902616368687766E-09
   -0.79067984013752241021E-09
   -0.54943511820047529049E-09
   -0.11547239359957860493E-09
   -0.64570651492553567311E-09
   -0.51286046010867344514E-09
   -0.12661368583216925221E-09
   -0.66424368764552124307E-09
   -0.52440339548775841706E-09
   -0.12178610057592879031E-09
   -0.65540472528975784047E-09
   -0.47151389717129196950E-09
   -0.13051281185824956573E-09
   -0.61914218330048681908E-09
   -0.80842551206512549444E-09
   -0.79087183657057101929E-09
   -0.54933645559973904624E-09
   -0.11512326147970519919E-09
   -0.64415565987992426886E-09
   -0.50960540720914874359E-09
   -0.12572517754307575334E-09
   -0.66341961950008567629E-09
   -0.52425386177575272433E-09
   -0.12172037464032686160E-09
   -0.65537665476748413507E-09
   -0.47142252972150473992E-09
   -0.13045538316343549406E-09
   -0.61901154489691227699E-09
   -0.80829825738670079570E-09
   -0.79067989540283887214E-09
   -0.54954002284289086251E-09
   -0.11609760139050167566E-09
   -0.64811797475896278220E-09
   -0.52057730459554917563E-09
   -0.13068888042481428406E-09
   -0.67406846140037272450E-09
   -0.52676182071014653950E-09
   -0.12246361719423872941E-09
   -0.65551103509604611521E-09
   -0.47154831268357285348E-09
   -0.13061716991762409919E-09
   -0.61917080014859306028E-09
   -0.80889901998202789474E-09
   -0.79183007341660690884E-09
   -0.29396036148143377987E-10
    0.55061080567745502003E-09
   -0.32128138812246946731E-09
   -0.34210943720132410288E-09
    0.18265661056443358018E-09
   -0.51712206280235002849E-09
   -0.19805203698598172834E-09
    0.49685944133540489520E-09
   -0.14217871757053983654E-09
    0.97266788714138707568E-09
   -0.54697343248917930142E-10
    0.76654526905932082579E-09
   -0.21478583551199325836E-09
   -0.10536655473575405347E-09
   -0.52461806332108687283E-09
   -0.10814522355755666965E-09
   -0.64290451860073817012E-09
   -0.50921809950319939751E-09
   -0.12471892963789832601E-09
   -0.66308948546505139766E-09
   -0.52299898346651931041E-09
   -0.11536323308214611906E-09
   -0.63106441480984039149E-09
   -0.40728901724491989898E-09
   -0.95827483439472420548E-10
   -0.53815096865091259935E-09
   -0.79968279376365099738E-09
   -0.78624649630540096841E-09
   -0.29392118846005055212E-10
    0.55061275551492788615E-09
   -0.32127789148717443738E-09
   -0.34210816981744246536E-09
    0.18265819110065900309E-09
   -0.51712105940379854691E-09
   -0.19805182338468063088E-09
    0.49685955264512718477E-09
   -0.14217867663597838778E-09
    0.97266828169978202505E-09
   -0.54696003679472782150E-10
    0.76654731254978787322E-09
   -0.21478407320683343545E-09
   -0.10536537002878632132E-09
   -0.52461957411287160551E-09
   -0.10814478430465338211E-09
   -0.64290430751806358853E-09
   -0.50921912057298618434E-09
   -0.12471877886231543449E-09
   -0.66308958325524359298E-09
   -0.52299867645228011721E-09
   -0.11536304656381195702E-09
   -0.63106435259437044315E-09
   -0.40728836016234585964E-09
   -0.95827665778825297690E-10
   -0.53815089614071908480E-09
   -0.79968222770992998153E-09
   -0.78624602773832229888E-09
   -0.54933633059922191511E-09
   -0.11512338697579016440E-09
   -0.64415585314049965675E-09
   -0.50960554676905009369E-09
   -0.12572620287156594154E-09
   -0.66342300165153236587E-09
   -0.52425479698045110723E-09
   -0.12172077745014124313E-09
   -0.65537678644203927919E-09
   -0.47142254369074667023E-09
   -0.13045588306011345371E-09
   -0.61901192615779633762E-09
   -0.80829932420289100340E-09
   -0.79068009209625185244E-09
   -0.54954467178407086524E-09
   -0.11612309184680367877E-09
   -0.64809618275080919425E-09
   -0.52012137283709762912E-09
   -0.13150239904683032003E-09
   -0.67761928750268984995E-09
   -0.52833474919425074677E-09
   -0.12282116398650100246E-09
   -0.65558314041489865017E-09
   -0.47156280466697631804E-09
   -0.13063558549605478969E-09
   -0.61917321083047348700E-09
   -0.80899001251446420325E-09