# vtk DataFile Version 3.0
LAPLACIEN  2D
ASCII
DATASET UNSTRUCTURED_GRID
 POINTS        1857  float
   3.1250000000000000E-002  0.93750000000000000        0.0000000000000000     
   6.2500000000000000E-002  0.93750000000000000        0.0000000000000000     
   6.2500000000000000E-002  0.96875000000000000        0.0000000000000000     
   1.8749999999999999E-002  0.95625000000000004        0.0000000000000000     
   4.0625000000000001E-002  0.95937499999999998        0.0000000000000000     
   4.3749999999999997E-002  0.98124999999999996        0.0000000000000000     
   2.1874999999999999E-002  0.97812500000000002        0.0000000000000000     
   9.3750000000000000E-002  0.93750000000000000        0.0000000000000000     
  0.12500000000000000       0.93750000000000000        0.0000000000000000     
  0.12500000000000000       0.96875000000000000        0.0000000000000000     
   8.1250000000000003E-002  0.95625000000000004        0.0000000000000000     
  0.10312499999999999       0.95937499999999998        0.0000000000000000     
  0.10625000000000000       0.98124999999999996        0.0000000000000000     
   8.4375000000000006E-002  0.97812500000000002        0.0000000000000000     
   3.1250000000000000E-002  0.87500000000000000        0.0000000000000000     
   6.2500000000000000E-002  0.87500000000000000        0.0000000000000000     
   6.2500000000000000E-002  0.90625000000000000        0.0000000000000000     
   1.8749999999999999E-002  0.89375000000000004        0.0000000000000000     
   4.0625000000000001E-002  0.89687499999999998        0.0000000000000000     
   4.3749999999999997E-002  0.91874999999999996        0.0000000000000000     
   2.1874999999999999E-002  0.91562500000000002        0.0000000000000000     
   9.3750000000000000E-002  0.87500000000000000        0.0000000000000000     
  0.12500000000000000       0.87500000000000000        0.0000000000000000     
  0.12500000000000000       0.90625000000000000        0.0000000000000000     
   8.1250000000000003E-002  0.89375000000000004        0.0000000000000000     
  0.10312499999999999       0.89687499999999998        0.0000000000000000     
  0.10625000000000000       0.91874999999999996        0.0000000000000000     
   8.4375000000000006E-002  0.91562500000000002        0.0000000000000000     
  0.15625000000000000       0.93750000000000000        0.0000000000000000     
  0.18750000000000000       0.93750000000000000        0.0000000000000000     
  0.18750000000000000       0.96875000000000000        0.0000000000000000     
  0.14374999999999999       0.95625000000000004        0.0000000000000000     
  0.16562499999999999       0.95937499999999998        0.0000000000000000     
  0.16875000000000001       0.98124999999999996        0.0000000000000000     
  0.14687500000000001       0.97812500000000002        0.0000000000000000     
  0.21875000000000000       0.93750000000000000        0.0000000000000000     
  0.25000000000000000       0.93750000000000000        0.0000000000000000     
  0.25000000000000000       0.96875000000000000        0.0000000000000000     
  0.20624999999999999       0.95625000000000004        0.0000000000000000     
  0.22812499999999999       0.95937499999999998        0.0000000000000000     
  0.23125000000000001       0.98124999999999996        0.0000000000000000     
  0.20937500000000001       0.97812500000000002        0.0000000000000000     
  0.15625000000000000       0.87500000000000000        0.0000000000000000     
  0.18750000000000000       0.87500000000000000        0.0000000000000000     
  0.18750000000000000       0.90625000000000000        0.0000000000000000     
  0.14374999999999999       0.89375000000000004        0.0000000000000000     
  0.16562499999999999       0.89687499999999998        0.0000000000000000     
  0.16875000000000001       0.91874999999999996        0.0000000000000000     
  0.14687500000000001       0.91562500000000002        0.0000000000000000     
  0.21875000000000000       0.87500000000000000        0.0000000000000000     
  0.25000000000000000       0.87500000000000000        0.0000000000000000     
  0.25000000000000000       0.90625000000000000        0.0000000000000000     
  0.20624999999999999       0.89375000000000004        0.0000000000000000     
  0.22812499999999999       0.89687499999999998        0.0000000000000000     
  0.23125000000000001       0.91874999999999996        0.0000000000000000     
  0.20937500000000001       0.91562500000000002        0.0000000000000000     
   3.1250000000000000E-002  0.81250000000000000        0.0000000000000000     
   6.2500000000000000E-002  0.81250000000000000        0.0000000000000000     
   6.2500000000000000E-002  0.84375000000000000        0.0000000000000000     
   1.8749999999999999E-002  0.83125000000000004        0.0000000000000000     
   4.0625000000000001E-002  0.83437499999999998        0.0000000000000000     
   4.3749999999999997E-002  0.85624999999999996        0.0000000000000000     
   2.1874999999999999E-002  0.85312500000000002        0.0000000000000000     
   9.3750000000000000E-002  0.81250000000000000        0.0000000000000000     
  0.12500000000000000       0.81250000000000000        0.0000000000000000     
  0.12500000000000000       0.84375000000000000        0.0000000000000000     
   8.1250000000000003E-002  0.83125000000000004        0.0000000000000000     
  0.10312499999999999       0.83437499999999998        0.0000000000000000     
  0.10625000000000000       0.85624999999999996        0.0000000000000000     
   8.4375000000000006E-002  0.85312500000000002        0.0000000000000000     
   3.1250000000000000E-002  0.75000000000000000        0.0000000000000000     
   6.2500000000000000E-002  0.75000000000000000        0.0000000000000000     
   6.2500000000000000E-002  0.78125000000000000        0.0000000000000000     
   1.8749999999999999E-002  0.76875000000000004        0.0000000000000000     
   4.0625000000000001E-002  0.77187499999999998        0.0000000000000000     
   4.3749999999999997E-002  0.79374999999999996        0.0000000000000000     
   2.1874999999999999E-002  0.79062500000000002        0.0000000000000000     
   9.3750000000000000E-002  0.75000000000000000        0.0000000000000000     
  0.12500000000000000       0.75000000000000000        0.0000000000000000     
  0.12500000000000000       0.78125000000000000        0.0000000000000000     
   8.1250000000000003E-002  0.76875000000000004        0.0000000000000000     
  0.10312499999999999       0.77187499999999998        0.0000000000000000     
  0.10625000000000000       0.79374999999999996        0.0000000000000000     
   8.4375000000000006E-002  0.79062500000000002        0.0000000000000000     
  0.15625000000000000       0.81250000000000000        0.0000000000000000     
  0.18750000000000000       0.81250000000000000        0.0000000000000000     
  0.18750000000000000       0.84375000000000000        0.0000000000000000     
  0.14374999999999999       0.83125000000000004        0.0000000000000000     
  0.16562499999999999       0.83437499999999998        0.0000000000000000     
  0.16875000000000001       0.85624999999999996        0.0000000000000000     
  0.14687500000000001       0.85312500000000002        0.0000000000000000     
  0.21875000000000000       0.81250000000000000        0.0000000000000000     
  0.25000000000000000       0.81250000000000000        0.0000000000000000     
  0.25000000000000000       0.84375000000000000        0.0000000000000000     
  0.20624999999999999       0.83125000000000004        0.0000000000000000     
  0.22812499999999999       0.83437499999999998        0.0000000000000000     
  0.23125000000000001       0.85624999999999996        0.0000000000000000     
  0.20937500000000001       0.85312500000000002        0.0000000000000000     
  0.15625000000000000       0.75000000000000000        0.0000000000000000     
  0.18750000000000000       0.75000000000000000        0.0000000000000000     
  0.18750000000000000       0.78125000000000000        0.0000000000000000     
  0.14374999999999999       0.76875000000000004        0.0000000000000000     
  0.16562499999999999       0.77187499999999998        0.0000000000000000     
  0.16875000000000001       0.79374999999999996        0.0000000000000000     
  0.14687500000000001       0.79062500000000002        0.0000000000000000     
  0.21875000000000000       0.75000000000000000        0.0000000000000000     
  0.25000000000000000       0.75000000000000000        0.0000000000000000     
  0.25000000000000000       0.78125000000000000        0.0000000000000000     
  0.20624999999999999       0.76875000000000004        0.0000000000000000     
  0.22812499999999999       0.77187499999999998        0.0000000000000000     
  0.23125000000000001       0.79374999999999996        0.0000000000000000     
  0.20937500000000001       0.79062500000000002        0.0000000000000000     
  0.28125000000000000       0.93750000000000000        0.0000000000000000     
  0.31250000000000000       0.93750000000000000        0.0000000000000000     
  0.31250000000000000       0.96875000000000000        0.0000000000000000     
  0.26874999999999999       0.95625000000000004        0.0000000000000000     
  0.29062500000000002       0.95937499999999998        0.0000000000000000     
  0.29375000000000001       0.98124999999999996        0.0000000000000000     
  0.27187499999999998       0.97812500000000002        0.0000000000000000     
  0.34375000000000000       0.93750000000000000        0.0000000000000000     
  0.37500000000000000       0.93750000000000000        0.0000000000000000     
  0.37500000000000000       0.96875000000000000        0.0000000000000000     
  0.33124999999999999       0.95625000000000004        0.0000000000000000     
  0.35312500000000002       0.95937499999999998        0.0000000000000000     
  0.35625000000000001       0.98124999999999996        0.0000000000000000     
[...]
 CELL_DATA        3584
 SCALARS VEGF float
 LOOKUP_TABLE default
    0.19867214473782969445E-08
    0.26366826952857401841E-08
    0.12857789415021843043E-08
    0.14117074062472828963E-08
    0.27047123595292019110E-08
    0.18455098427633367126E-08
    0.32538618905959643100E-08
    0.22679217624183871607E-08
    0.23323531792469598090E-08
    0.25375859686490057752E-08
    0.22498720853159957013E-08
    0.29817481009242210796E-08
    0.23859700056557293401E-08
    0.24166432302418115249E-08
    0.49847984637581906373E-09
    0.11203648839587564107E-08
    0.15776342673340537611E-09
    0.60127949232408285745E-09
    0.18130649667735629491E-08
    0.12511817435443507535E-08
    0.25203036117483994865E-08
    0.14907978261165238315E-08
    0.24992796785532903684E-08
    0.18443067471463251263E-08
    0.20244639457351207385E-08
    0.10759640835986116724E-08
    0.11973161937191925719E-08
    0.11766582341971590158E-08
    0.14314464162586286202E-08
    0.17979110077176922641E-08
    0.53412340913533735592E-09
    0.34696426140553920940E-09
    0.11524465412256549990E-08
    0.40037490367523464513E-09
    0.11945819549381861857E-08
    0.20296230486916339576E-08
    0.17219620348050533659E-08
    0.27336709973722341776E-08
    0.15404452479155839822E-08
    0.22986489106923084228E-08
    0.12034652667539790846E-08
    0.12559539094156862698E-08
   -0.30114653706096476169E-09
   -0.26999094950862897860E-10
   -0.76331299075194564643E-09
   -0.63590581110164945624E-09
   -0.58361998740623834654E-10
   -0.45784443761978465625E-09
    0.13565560657361292901E-10
    0.34654454285334141220E-09
    0.14793363812090743249E-09
    0.33320617773520804379E-09
    0.35046403117476408762E-09
   -0.36877200481174082446E-10
   -0.54706393464555788872E-09
   -0.53460913635901375164E-09
    0.63413953980210103198E-10
    0.85640575300990865744E-09
    0.55086643564324813406E-11
    0.49694706843464609920E-09
    0.16839383538033696006E-08
    0.11650952568757804103E-08
    0.23901443820033870342E-08
    0.12724985688916271336E-08
    0.21584636782141615844E-08
    0.13873470927314817332E-08
    0.16085963753610741499E-08
    0.46259958257368192609E-09
    0.93590405655414437974E-09
    0.96319492089794493891E-09
    0.17639823806575179554E-10
    0.83117249536154677423E-09
   -0.60137184251061867324E-11
    0.48962873351016338961E-09
    0.16731310826846107945E-08
    0.11584021229162260610E-08
    0.23785981793110840692E-08
    0.12500619892087985353E-08
    0.21180362240241463845E-08
    0.13276673996809802454E-08
    0.15602044352050316626E-08
    0.38883292119389875075E-09
    0.90945604023370935596E-09
    0.94249693061850587325E-09
   -0.80161381376529140719E-09
   -0.33788946608866931339E-09
   -0.93397171519934775708E-09
   -0.75426560669869333616E-09
   -0.21534953100985482839E-09
   -0.56164876946417010087E-09
   -0.14441726654125107006E-09
    0.66292582435047670835E-10
   -0.30441048218462779110E-09
   -0.30201722934058890720E-09
   -0.18253586601667854801E-09
   -0.77959503475517230821E-09
   -0.87274193627998399873E-09
   -0.80164342079023672988E-09
   -0.82228733998942397958E-09
   -0.33154164238630299198E-09
   -0.83752069974461960227E-09
   -0.68357027779596449276E-09
   -0.20490980744720373878E-09
   -0.55909247284542729650E-09
   -0.15475620513352159832E-09
    0.43129486939921877073E-10
   -0.35097329076357637205E-09
   -0.37259142463897747863E-09
   -0.23507776437165504668E-09
   -0.85787165229341632114E-09
   -0.89283153710937220805E-09
   -0.81671790557758260826E-09
    0.13523646271776004192E-08
    0.16791010629159668476E-08
    0.43842698357046487847E-09
    0.20700382302506949133E-09
    0.90889269678927630867E-09
   -0.19414815076662719313E-11
    0.62717884140003989469E-09
    0.16442525490583536894E-08
    0.12962777754415437468E-08
    0.24168540611126297593E-08
    0.13383839158040342907E-08
    0.21786208457488325573E-08
    0.10063599918092489170E-08
    0.10144231633237239003E-08
   -0.39629299809213692883E-09
   -0.17147590611979623899E-09
   -0.87183442410929040835E-09
   -0.79308877808171867563E-09
   -0.34658387522908379443E-09
   -0.92397142140120702709E-09
   -0.67982779491529196836E-09
   -0.14899553719903005143E-09
   -0.44202997651373086883E-09
   -0.85607517148366833963E-10
    0.91641773703116822307E-10
   -0.18214612718970002403E-09
   -0.79391211703959000376E-09
   -0.83630862692910942688E-09
    0.13463606541355809709E-08
    0.16693684445271639125E-08
    0.43192326363461086849E-09
    0.19672359601161692621E-09
    0.88602659708546606768E-09
   -0.43602100134232007563E-10
    0.55969579544997428428E-09
    0.16000679167553233279E-08
    0.12416159995116926053E-08
    0.23799336156473070296E-08
    0.13179888238628331975E-08
    0.21681838807501359442E-08
    0.98758929335669048828E-09
    0.99039743482408273555E-09
   -0.39293223974857763317E-09
   -0.15977147848024880594E-09
   -0.80020210372803781304E-09
   -0.69523624032965243369E-09
   -0.33754121916829740902E-09
   -0.94007489304124233807E-09
   -0.75092169573648080708E-09
   -0.19655777783731336226E-09
   -0.50645295716567648384E-09
   -0.12794613059970887498E-09
    0.70920898215659828554E-10
   -0.19120177097509996770E-09
   -0.80670545573187815382E-09
   -0.85354810407612109509E-09
   -0.86597026525206230255E-09
   -0.42683677396603804016E-09
   -0.83435093923624342810E-09
   -0.70334994644589601398E-09
   -0.44820176197410948912E-09
   -0.99737491809656728592E-09
   -0.84688189540021804229E-09
   -0.44802574973907584580E-09
   -0.94309200233990630068E-09
   -0.76892604848041176000E-09
   -0.45965954890775763621E-09
   -0.93312508861786919689E-09
   -0.11134364560483731136E-08
   -0.10972825490084196659E-08
    0.69949961653282177356E-09
    0.16559256604237828160E-08
    0.54120469082614440178E-08
    0.45641765721150835312E-08
    0.12202202736284905338E-08
   -0.11285028444684233273E-09
   -0.61508988578157990034E-09
   -0.23803083671772993068E-09
   -0.93333792500203586225E-09
   -0.77515438007017110295E-09
   -0.22054087156675906938E-09
   -0.58680239750971509088E-09
   -0.41778649715986273435E-09
   -0.45750357432966495414E-09
    0.19435375290486300570E-10
    0.12429255121506985684E-08
    0.44341713119014814804E-08
    0.55445008073773077756E-08
    0.16373173278511694207E-08
    0.57269621500724392090E-09
   -0.49331536126551221968E-09
   -0.20376941598063460007E-09
   -0.94285458843998232322E-09
   -0.75460839300692364581E-09
   -0.24703986693253454327E-09
   -0.69991162628991580398E-09
   -0.47126555912982082098E-09
   -0.39867539358489634455E-09
    0.42727732634602395694E-07
    0.66322116880934065018E-07
    0.18791685518512988131E-06
    0.18804826123883265032E-06
    0.66302126286333585898E-07
    0.42599969049440662315E-07
    0.11997159915327872985E-07
    0.10337390520617942229E-07
    0.18939876821933657569E-08
    0.20662661339219838859E-08
    0.10323270242873663806E-07
    0.11905144727524106855E-07
    0.25449074568788251102E-07
    0.25465782891857654070E-07
    0.19799146497359413811E-10
    0.83374159909585266210E-09
    0.50576901156158913158E-11
    0.49559024628749741834E-09
    0.16743542185293546522E-08
    0.11587248416674302221E-08
    0.23782650219041086030E-08
    0.12490603286779973065E-08
    0.21155501286571853507E-08
    0.13235478434765757379E-08
    0.15575811728677019588E-08
    0.38484553657158519208E-09
    0.90904813977790538203E-09
    0.94217189526296581278E-09
    0.57953006489907780644E-10
    0.85845739275802044986E-09
    0.68746461093522914994E-10
    0.52585392320362789949E-09
    0.16830104064706183621E-08
    0.11614585435716849752E-08
    0.23793399358392835011E-08
    0.12504620112779850523E-08
    0.21160361470221469803E-08
    0.13242414053340522608E-08
    0.15613743869381167954E-08
    0.39446869257158296992E-09
    0.91588264593249708335E-09
    0.94673234830999641186E-09
   -0.28385542125661753626E-09
    0.15741155579845405334E-09
    0.52361154107072858839E-09
    0.16256555614613234502E-09
    0.50387496983799114570E-10
   -0.45897926992904522880E-09
   -0.12711953331043251331E-09
    0.79272677730161208105E-10
   -0.34311309541169172129E-09
   -0.36122602378718579764E-09
   -0.16612578400905051435E-09
   -0.72123632212580219495E-09
   -0.74377356972070286694E-09
   -0.70121668509330152916E-09
    0.43186358069793424092E-08
    0.35112673700731410503E-08
    0.86278506512605992037E-08
    0.45564688599792327746E-08
    0.14410207593608384998E-08
    0.28558546478364135175E-10
    0.25130197970337373663E-10
    0.32422104110361023242E-09
   -0.26105332964727890591E-09
   -0.22094077014090254680E-09
    0.43104987276998149085E-09
    0.58908828484927972132E-09
    0.30617920379135635878E-09
    0.53030422584376963855E-10
    0.20122699122149233104E-09
    0.93338303932010864999E-09
    0.23073917791864213383E-09
    0.59353151445183086549E-09
    0.17032861972027698999E-08
    0.11672037043784832926E-08
    0.23819349457942351135E-08
    0.12546233427995612940E-08
    0.21180389941995733330E-08
    0.13276004685923740038E-08
    0.15758811612769720012E-08
    0.43451852780999851891E-09
    0.93711624542293815918E-09
    0.95989070258233017328E-09
    0.43254360342536116933E-09
    0.10265568004727893821E-08
    0.37889735656381370199E-09
    0.64420443777258938505E-09
    0.17198084782537846388E-08
    0.11710900429549266607E-08
    0.23842000064054960991E-08
    0.12594943230097334398E-08
    0.21211256085038591750E-08
    0.13335489363240768190E-08
    0.15997057935957170159E-08
    0.50748568301190043363E-09
    0.96422973974887227620E-09
    0.97508339104369049801E-09
    0.22837974470760957914E-07
    0.14332278866253997400E-07
    0.30521130575081142099E-07
    0.14909288274737479531E-07
    0.48915034517573822041E-08
    0.11041013077625134453E-08
    0.40757250260350309517E-09
    0.10797615967673038182E-08
    0.45902076899095256322E-10
    0.37493052075207396448E-09
    0.28091633211268666488E-08
    0.63803279348171811252E-08
    0.37643386876366262958E-08
    0.23527177397344290959E-08
    0.54266583971446392179E-07
    0.28378583527636101076E-07
    0.51402230055124301852E-07
    0.22915955738344740437E-07
    0.78260315955700609114E-08
    0.18534688437762296433E-08
    0.75214250067123599546E-09
    0.20034388219181788774E-08
    0.54221076665044486404E-09
    0.14907920280616171340E-08
    0.69092615398253184978E-08
    0.17582015831725162385E-07
    0.83810154497617652344E-08
    0.51208387175919419463E-08
    0.32879026134022285533E-07
    0.35010058236803100985E-07
    0.92847949245032628079E-07
    0.67380121093803804169E-07
    0.22277330354495627518E-07
    0.96701983843441099902E-08
    0.23720342788841293899E-08
    0.32965624070298738226E-08
    0.12985562386731535578E-09
    0.63345256669187311130E-09
    0.53857500602532254175E-08
    0.87575886647968368906E-08
    0.11256316220054969023E-07
    0.93481911553450336105E-08
    0.33678696710725141387E-06
    0.28564159525908215055E-06
    0.66142926983974646153E-06
    0.42072314503619297470E-06
    0.14709786473233880432E-06
    0.60933664792252408580E-07
    0.19904992001055008648E-07
    0.28600232756693322425E-07
    0.91578899762884770036E-08
    0.14315445937694022629E-07
    0.56435484347340899030E-07
    0.10518763676151636036E-06
    0.10071325106886334902E-06
    0.78808034387405597187E-07
    0.10413463481242687112E-05
    0.12678611123900001567E-05
    0.31770533822347858034E-05
    0.26802760101428741244E-05
    0.99759111792801528254E-06
    0.56157817367822792986E-06
    0.18453203094848761941E-06
    0.19048908945714935728E-06
    0.59398346774603429280E-07
    0.68860946799189574674E-07
    0.24182511281271248827E-06
    0.33349550915408564571E-06
    0.50956365559041218136E-06
    0.46664655354608558485E-06
    0.11777047434931597303E-04
    0.11323039965719178271E-04
    0.24642331285241629102E-04
    0.17958592504079175781E-04
    0.70527776376807389182E-05
    0.35046680880131442055E-05
    0.12911784604222353601E-05
    0.16132009231673795660E-05
    0.60164668243920238427E-06
    0.79584853658936505414E-06
    0.26006300421361754302E-05
    0.41354154427547759631E-05
    0.46345824251770279223E-05
    0.39217260504608548742E-05
    0.16522200343429713415E-05
    0.11488476478657996586E-05
    0.22942243783119886099E-05
    0.12995842498654296050E-05
    0.47643731955027941337E-06
    0.18008004601663547889E-06
    0.66666015886906848893E-07
    0.11194141111619848601E-06
    0.45402203698077915740E-07
    0.77030740006465131044E-07
    0.27465936104004264599E-06
    0.56835928530961133649E-06
    0.41574455205773126190E-06
    0.30471541684658077670E-06
    0.39997537889560671461E-05
    0.23185756745550367393E-05
    0.39174159708186633599E-05
    0.20018408355759794881E-05
    0.76930878879741227038E-06
    0.26589079698876139470E-06
    0.11058075720616629204E-06
    0.21854082814000087061E-06
    0.10702124841611839743E-06
    0.20122871166419277792E-06
    0.66995931184034163892E-06
    0.15213075033624857943E-05
    0.85564977202209203109E-06
    0.58849924330241497123E-06
    0.61739695545985444607E-04
    0.48233681912945141344E-04
    0.89963909850675750327E-04
    0.58038851085860257244E-04
    0.24040947225660907804E-04
    0.10709176018811666708E-04
    0.44275494735928626710E-05
    0.66183109947794758045E-05
    0.29445467207543497548E-05
    0.44011454768838393812E-05
    0.13426603641341258022E-04
    0.24023412758970896422E-04
    0.20155814158297819438E-04
    0.15907680072654524267E-04
    0.15529395940511227258E-03
    0.10035528135851257592E-03
    0.15748242874037449591E-03
    0.91099327181444293960E-04
    0.39837069376068581729E-04
    0.16067231704604115655E-04
    0.74973152000679475686E-05
    0.13315607270152943176E-04
    0.71342349702072950434E-05
    0.11946761895657119756E-04
    0.33998473920438051653E-04
    0.67507956264201344327E-04
    0.42795491818932977377E-04
    0.31611356431351196258E-04
    0.13467217093544585776E-08
    0.16706574590755255304E-08
    0.43792952488452146090E-09
    0.20787049629861008528E-09
    0.88876161753894362025E-09
   -0.41122244881617354693E-10
    0.55625892608806011061E-09
    0.15977908536876158207E-08
    0.12379546946798178009E-08
    0.23777382574913826844E-08
    0.13171319089056245492E-08
    0.21679190406687374333E-08
    0.98739460927672309577E-09
    0.99016337130186745087E-09
   -0.29277384318257343331E-09
    0.95603125321812884521E-10
    0.45992944054655397556E-10
    0.66599554405842473648E-09
    0.15161211842245272105E-09
   -0.40127344370014376951E-09
   -0.61365167961426002070E-09
   -0.12719810295501800343E-09
   -0.49455080623785787977E-09
   -0.11975513149662581974E-09
    0.10723539492599555665E-09
   -0.16348545092544273469E-09
   -0.69104838655100371423E-09
   -0.70428326466749618099E-09
    0.13494571236022493551E-08
    0.16793158890771442040E-08
    0.46819958547573236186E-09
    0.27156684737358508076E-09
    0.91348544901778641917E-09
   -0.29533070032458853490E-11
    0.56590963283650754705E-09
    0.16016041173695725603E-08
    0.12386750817343331608E-08
    0.23782418765072488357E-08
    0.13185453438008532296E-08
    0.21689980669188987750E-08
    0.99196412917034006695E-09
    0.99700914361346297203E-09
    0.19477120560540949092E-09
    0.14862446406617180397E-08
    0.44399071294845366730E-08
    0.87702491481752223244E-08
    0.35054857208674382729E-08
    0.42012524472189336835E-08
    0.69671428713877621112E-09
    0.46999957100204357250E-09
   -0.35423980290226290327E-09
   -0.37678914752498920467E-10
    0.35219534017029168002E-09
   -0.11228813721625286290E-10
    0.63209415446633805536E-10
    0.34568129184343103221E-09
    0.98025742909270646105E-08
    0.22300192441994235482E-07
    0.67250322301670109260E-07
    0.92980686058840033479E-07
    0.34991761464290793288E-07
    0.32752699079431085916E-07
    0.88517745538196145609E-08
    0.54029870007208081299E-08
    0.46634464357816190920E-09
    0.30896286879296688421E-09
    0.32877705461499555438E-08
    0.22873214761395463164E-08
    0.93346479851467983353E-08
    0.11275703400957644469E-07
    0.56170650127861203756E-06
    0.99761192034702222595E-06
    0.26801459842243607286E-05
    0.31771858916189388404E-05
    0.12678419353228190072E-05
    0.10412193014823453548E-05
    0.33358835725805878523E-06
    0.24183990459747917008E-06
    0.68689375895419543176E-07
    0.59571136138152617087E-07
    0.19047544354924399156E-06
    0.18444038616294327789E-06
    0.46663047089713976469E-06
    0.50958101807511130955E-06
    0.61066076831093901548E-07
    0.14712081168958838237E-06
    0.42059348627777389594E-06
    0.66156222449021483587E-06
    0.28562350209547309092E-06
    0.33666096371841501527E-06
    0.10528202838499369148E-06
    0.56452839037239652281E-07
    0.14148412311432588419E-07
    0.93370422022206736053E-08
    0.28591486922220982022E-07
    0.19820300168939633892E-07
    0.78794579038870348516E-07
    0.10073275211656567631E-06
    0.35047967587185746661E-05
    0.70527991965286405604E-05
    0.17958463696850732476E-04
    0.24642465246128042894E-04
    0.11323022897316087492E-04
    0.11776923634675065595E-04
    0.41355101309544576359E-05
    0.26006460057224721443E-05
    0.79567758066875024468E-06
    0.60181991739144573010E-06
    0.16131878533149433159E-05
    0.12910871191521370506E-05
    0.39217109375380245750E-05
    0.46346010540080894501E-05
    0.13551997563100484102E-08
    0.16995912500214929504E-08
    0.53587196228706193103E-09
    0.43355811514493856509E-09
    0.98841137137746665541E-09
    0.14032248226339897827E-09
    0.60596139399620697364E-09
    0.16161113064814747260E-08
    0.12420333052484003112E-08
    0.23802421009306876768E-08
    0.13227035989684978170E-08
    0.21715939823932062806E-08
    0.10051197908408543572E-08
    0.10182396616225231741E-08
    0.12703097399598546608E-08
    0.49367302124633509740E-08
    0.14792731373926877580E-07
    0.30663536826175826481E-07
    0.14326503723718937994E-07
    0.22720604569578667891E-07
    0.64879627861556969421E-08
    0.28481189024230725190E-08
    0.24163615395535498950E-09
    0.26927829683030107214E-09
    0.11077342756051132004E-08
    0.37120949181070963743E-09
    0.23628979737009835245E-08
    0.38038448553483743371E-08
    0.13590860876124242902E-08
    0.17161095417633976917E-08
    0.58654098032738520851E-09
    0.58170929802621029904E-09
    0.10815825513991576923E-08
    0.37163981664348677146E-09
    0.67892788662953985050E-09
    0.16399338967174709936E-08
    0.12479798930682169906E-08
    0.23833278623858799089E-08
    0.13275741929227596135E-08
    0.21738563961747469613E-08
    0.10203105523834683419E-08
    0.10453519200350840237E-08
    0.20196679637858413927E-08
    0.78712501692795478335E-08
    0.22799386093009476987E-07
    0.51544626711109698472E-07
    0.28372806055314973491E-07
    0.54149213614488676517E-07
    0.17689653645703727649E-07
    0.69482161314540356040E-08
    0.13574965286294353094E-08
    0.76558567984312594984E-09
    0.20314085751361970242E-08
    0.71577424661158387877E-09
    0.51310165759651531741E-08
    0.84205192451629368384E-08
    0.18021246243961145720E-06
    0.47646027586101916636E-06
    0.12994546056257404890E-05
    0.22943573351355383275E-05
    0.11488296247124353987E-05
    0.16520941729245278448E-05
    0.56845379622550530734E-06
    0.27467677258526616177E-06
    0.76863737816099361727E-07
    0.45581375359925091384E-07
    0.11193268503601281939E-06
    0.66581335470763643876E-07
    0.30470199052404704331E-06
    0.41576409647537976564E-06
    0.10709304561947200553E-04
    0.24040968915796015183E-04
    0.58038724176287142577E-04
    0.89964048763788574507E-04
    0.48233666392348431649E-04
    0.61739573101498914916E-04
    0.24023508591131625506E-04
    0.13426620096575783738E-04
    0.44009748046667491415E-05
    0.29447201211150185868E-05
    0.66182980746951220540E-05
    0.44274581174332962834E-05
    0.15907665204867689278E-04