# vtk DataFile Version 3.0
LAPLACIEN  2D
ASCII
DATASET UNSTRUCTURED_GRID
 POINTS        1857  float
   3.1250000000000000E-002  0.93750000000000000        0.0000000000000000     
   6.2500000000000000E-002  0.93750000000000000        0.0000000000000000     
   6.2500000000000000E-002  0.96875000000000000        0.0000000000000000     
   1.8749999999999999E-002  0.95625000000000004        0.0000000000000000     
   4.0625000000000001E-002  0.95937499999999998        0.0000000000000000     
   4.3749999999999997E-002  0.98124999999999996        0.0000000000000000     
   2.1874999999999999E-002  0.97812500000000002        0.0000000000000000     
   9.3750000000000000E-002  0.93750000000000000        0.0000000000000000     
  0.12500000000000000       0.93750000000000000        0.0000000000000000     
  0.12500000000000000       0.96875000000000000        0.0000000000000000     
   8.1250000000000003E-002  0.95625000000000004        0.0000000000000000     
  0.10312499999999999       0.95937499999999998        0.0000000000000000     
  0.10625000000000000       0.98124999999999996        0.0000000000000000     
   8.4375000000000006E-002  0.97812500000000002        0.0000000000000000     
   3.1250000000000000E-002  0.87500000000000000        0.0000000000000000     
   6.2500000000000000E-002  0.87500000000000000        0.0000000000000000     
   6.2500000000000000E-002  0.90625000000000000        0.0000000000000000     
   1.8749999999999999E-002  0.89375000000000004        0.0000000000000000     
   4.0625000000000001E-002  0.89687499999999998        0.0000000000000000     
   4.3749999999999997E-002  0.91874999999999996        0.0000000000000000     
   2.1874999999999999E-002  0.91562500000000002        0.0000000000000000     
   9.3750000000000000E-002  0.87500000000000000        0.0000000000000000     
  0.12500000000000000       0.87500000000000000        0.0000000000000000     
  0.12500000000000000       0.90625000000000000        0.0000000000000000     
   8.1250000000000003E-002  0.89375000000000004        0.0000000000000000     
  0.10312499999999999       0.89687499999999998        0.0000000000000000     
  0.10625000000000000       0.91874999999999996        0.0000000000000000     
   8.4375000000000006E-002  0.91562500000000002        0.0000000000000000     
  0.15625000000000000       0.93750000000000000        0.0000000000000000     
  0.18750000000000000       0.93750000000000000        0.0000000000000000     
  0.18750000000000000       0.96875000000000000        0.0000000000000000     
  0.14374999999999999       0.95625000000000004        0.0000000000000000     
  0.16562499999999999       0.95937499999999998        0.0000000000000000     
  0.16875000000000001       0.98124999999999996        0.0000000000000000     
  0.14687500000000001       0.97812500000000002        0.0000000000000000     
  0.21875000000000000       0.93750000000000000        0.0000000000000000     
  0.25000000000000000       0.93750000000000000        0.0000000000000000     
  0.25000000000000000       0.96875000000000000        0.0000000000000000     
  0.20624999999999999       0.95625000000000004        0.0000000000000000     
  0.22812499999999999       0.95937499999999998        0.0000000000000000     
  0.23125000000000001       0.98124999999999996        0.0000000000000000     
  0.20937500000000001       0.97812500000000002        0.0000000000000000     
  0.15625000000000000       0.87500000000000000        0.0000000000000000     
  0.18750000000000000       0.87500000000000000        0.0000000000000000     
  0.18750000000000000       0.90625000000000000        0.0000000000000000     
  0.14374999999999999       0.89375000000000004        0.0000000000000000     
  0.16562499999999999       0.89687499999999998        0.0000000000000000     
  0.16875000000000001       0.91874999999999996        0.0000000000000000     
  0.14687500000000001       0.91562500000000002        0.0000000000000000     
  0.21875000000000000       0.87500000000000000        0.0000000000000000     
  0.25000000000000000       0.87500000000000000        0.0000000000000000     
  0.25000000000000000       0.90625000000000000        0.0000000000000000     
  0.20624999999999999       0.89375000000000004        0.0000000000000000     
  0.22812499999999999       0.89687499999999998        0.0000000000000000     
  0.23125000000000001       0.91874999999999996        0.0000000000000000     
  0.20937500000000001       0.91562500000000002        0.0000000000000000     
   3.1250000000000000E-002  0.81250000000000000        0.0000000000000000     
   6.2500000000000000E-002  0.81250000000000000        0.0000000000000000     
   6.2500000000000000E-002  0.84375000000000000        0.0000000000000000     
   1.8749999999999999E-002  0.83125000000000004        0.0000000000000000     
   4.0625000000000001E-002  0.83437499999999998        0.0000000000000000     
   4.3749999999999997E-002  0.85624999999999996        0.0000000000000000     
   2.1874999999999999E-002  0.85312500000000002        0.0000000000000000     
   9.3750000000000000E-002  0.81250000000000000        0.0000000000000000     
  0.12500000000000000       0.81250000000000000        0.0000000000000000     
  0.12500000000000000       0.84375000000000000        0.0000000000000000     
   8.1250000000000003E-002  0.83125000000000004        0.0000000000000000     
  0.10312499999999999       0.83437499999999998        0.0000000000000000     
  0.10625000000000000       0.85624999999999996        0.0000000000000000     
   8.4375000000000006E-002  0.85312500000000002        0.0000000000000000     
   3.1250000000000000E-002  0.75000000000000000        0.0000000000000000     
   6.2500000000000000E-002  0.75000000000000000        0.0000000000000000     
   6.2500000000000000E-002  0.78125000000000000        0.0000000000000000     
   1.8749999999999999E-002  0.76875000000000004        0.0000000000000000     
   4.0625000000000001E-002  0.77187499999999998        0.0000000000000000     
   4.3749999999999997E-002  0.79374999999999996        0.0000000000000000     
   2.1874999999999999E-002  0.79062500000000002        0.0000000000000000     
   9.3750000000000000E-002  0.75000000000000000        0.0000000000000000     
  0.12500000000000000       0.75000000000000000        0.0000000000000000     
  0.12500000000000000       0.78125000000000000        0.0000000000000000     
   8.1250000000000003E-002  0.76875000000000004        0.0000000000000000     
  0.10312499999999999       0.77187499999999998        0.0000000000000000     
  0.10625000000000000       0.79374999999999996        0.0000000000000000     
   8.4375000000000006E-002  0.79062500000000002        0.0000000000000000     
  0.15625000000000000       0.81250000000000000        0.0000000000000000     
  0.18750000000000000       0.81250000000000000        0.0000000000000000     
  0.18750000000000000       0.84375000000000000        0.0000000000000000     
  0.14374999999999999       0.83125000000000004        0.0000000000000000     
  0.16562499999999999       0.83437499999999998        0.0000000000000000     
  0.16875000000000001       0.85624999999999996        0.0000000000000000     
  0.14687500000000001       0.85312500000000002        0.0000000000000000     
  0.21875000000000000       0.81250000000000000        0.0000000000000000     
  0.25000000000000000       0.81250000000000000        0.0000000000000000     
  0.25000000000000000       0.84375000000000000        0.0000000000000000     
  0.20624999999999999       0.83125000000000004        0.0000000000000000     
  0.22812499999999999       0.83437499999999998        0.0000000000000000     
  0.23125000000000001       0.85624999999999996        0.0000000000000000     
  0.20937500000000001       0.85312500000000002        0.0000000000000000     
  0.15625000000000000       0.75000000000000000        0.0000000000000000     
  0.18750000000000000       0.75000000000000000        0.0000000000000000     
  0.18750000000000000       0.78125000000000000        0.0000000000000000     
  0.14374999999999999       0.76875000000000004        0.0000000000000000     
  0.16562499999999999       0.77187499999999998        0.0000000000000000     
  0.16875000000000001       0.79374999999999996        0.0000000000000000     
  0.14687500000000001       0.79062500000000002        0.0000000000000000     
  0.21875000000000000       0.75000000000000000        0.0000000000000000     
  0.25000000000000000       0.75000000000000000        0.0000000000000000     
  0.25000000000000000       0.78125000000000000        0.0000000000000000     
  0.20624999999999999       0.76875000000000004        0.0000000000000000     
  0.22812499999999999       0.77187499999999998        0.0000000000000000     
  0.23125000000000001       0.79374999999999996        0.0000000000000000     
  0.20937500000000001       0.79062500000000002        0.0000000000000000     
  0.28125000000000000       0.93750000000000000        0.0000000000000000     
  0.31250000000000000       0.93750000000000000        0.0000000000000000     
  0.31250000000000000       0.96875000000000000        0.0000000000000000     
  0.26874999999999999       0.95625000000000004        0.0000000000000000     
  0.29062500000000002       0.95937499999999998        0.0000000000000000     
  0.29375000000000001       0.98124999999999996        0.0000000000000000     
  0.27187499999999998       0.97812500000000002        0.0000000000000000     
  0.34375000000000000       0.93750000000000000        0.0000000000000000     
  0.37500000000000000       0.93750000000000000        0.0000000000000000     
  0.37500000000000000       0.96875000000000000        0.0000000000000000     
  0.33124999999999999       0.95625000000000004        0.0000000000000000     
  0.35312500000000002       0.95937499999999998        0.0000000000000000     
  0.35625000000000001       0.98124999999999996        0.0000000000000000     
[...]
 CELL_DATA        3584
 SCALARS VEGF float
 LOOKUP_TABLE default
    0.10979425861407421098E-08
    0.17331258585682255860E-08
    0.43671399944392935075E-09
    0.56225859109544046075E-09
    0.18035254401081979433E-08
    0.96103536865230593152E-09
    0.23510433907628071272E-08
    0.13429891645057219827E-08
    0.14164217791297783101E-08
    0.16218761369564285966E-08
    0.13248260445544709320E-08
    0.20772451871232187696E-08
    0.14461890221464279396E-08
    0.14771867831001297000E-08
   -0.23998449733646526492E-09
    0.39058008295552620748E-09
   -0.48807858856966778035E-09
   -0.61272976486443047446E-10
    0.10800898315740974163E-08
    0.51974987182508120064E-09
    0.17671227857813737210E-08
    0.69730312413104265606E-09
    0.16642468496499805356E-08
    0.98261021694655823485E-09
    0.11931426632037215260E-08
    0.25573082950493993157E-09
    0.40519207974666682293E-09
    0.38840494505773392633E-09
    0.68899668972539551512E-09
    0.10567449368977952828E-08
   -0.13397200672161828986E-09
   -0.30396960278285748475E-09
    0.42306195878826346120E-09
   -0.33289361060277140119E-09
    0.37388771997698981581E-09
    0.11954131319603144428E-08
    0.85660431241951599712E-09
    0.18940746061836640185E-08
    0.74176122951668336209E-09
    0.15374855424894461865E-08
    0.41046974752759535764E-09
    0.46055836724338797361E-09
   -0.83016754145970312768E-09
   -0.52090266375076041839E-09
   -0.11679308417084786247E-08
   -0.10397102194918721195E-08
   -0.54635977245616059918E-09
   -0.97549660142127076942E-09
   -0.59243859461332606838E-09
   -0.27284643652342844445E-09
   -0.55351732056307892542E-09
   -0.36631576754083066665E-09
   -0.26875152912423247241E-09
   -0.64718689571471004161E-09
   -0.11063748299162421573E-08
   -0.10931033483326635289E-08
   -0.51406550070390741283E-09
    0.24494449540293451367E-09
   -0.55646416477269945680E-09
   -0.10232364702916750678E-09
    0.10231326717853629200E-08
    0.48677800732935710019E-09
    0.17089197979530597526E-08
    0.57996913174243617606E-09
    0.14528448533074568795E-08
    0.67050453716717520505E-09
    0.92185765632861383573E-09
   -0.18310257809314089398E-09
    0.25860663102846682589E-09
    0.27638310881702391115E-09
   -0.52669891065896780489E-09
    0.23925813650023496108E-09
   -0.55852730170287175040E-09
   -0.10340132586157024137E-09
    0.10213604057362171341E-08
    0.48587036051360021562E-09
    0.17070026322506806192E-08
    0.57506550817450091312E-09
    0.14417568761411891569E-08
    0.65094805698855897539E-09
    0.90756722706091712997E-09
   -0.20847656736404231925E-09
    0.25249003299682056166E-09
    0.27209500418885087285E-09
   -0.11359981693174816152E-08
   -0.68767324999158216166E-09
   -0.12437547491065097312E-08
   -0.10861297906207952724E-08
   -0.61479186583200508011E-09
   -0.10150824607986021141E-08
   -0.66342157131120310877E-09
   -0.42412856547597459314E-09
   -0.83730887655032199394E-09
   -0.80339610471612883569E-09
   -0.61094390318666043644E-09
   -0.11635459868767861433E-08
   -0.12855822905091653252E-08
   -0.12311627372722829265E-08
   -0.11497171206274175579E-08
   -0.69388265896925121753E-09
   -0.12459559283681419877E-08
   -0.10872854997530926756E-08
   -0.61675317799380356622E-09
   -0.10160781605086845852E-08
   -0.66554113637631857511E-09
   -0.42973051753111895169E-09
   -0.85016953281528599869E-09
   -0.82654617145840762193E-09
   -0.62727809403138093435E-09
   -0.11920435988645542582E-08
   -0.12924579506304016545E-08
   -0.12359826504388099297E-08
    0.65932436534209373558E-09
    0.10055147668034239318E-08
   -0.17050418196632292114E-09
   -0.36500042510023874133E-09
    0.29178850093952023907E-09
   -0.58098653061898351943E-09
   -0.25472691749981021679E-10
    0.94793365958800679492E-09
    0.56885803783851770286E-09
    0.16998561897053580034E-08
    0.63478140126835561961E-09
    0.14847052599114061782E-08
    0.30902927784278401204E-09
    0.32773223986821535812E-09
   -0.86514291389742566151E-09
   -0.58177337852226335278E-09
   -0.12089573382941216254E-08
   -0.11072789608324756493E-08
   -0.69677100579455960130E-09
   -0.12538649676068544697E-08
   -0.10660143680604127860E-08
   -0.58437133869057328933E-09
   -0.95206087405260728467E-09
   -0.62339657569586825672E-09
   -0.40474471535168338946E-09
   -0.71045916146211517212E-09
   -0.12303540917048461433E-08
   -0.12547474948559358900E-08
    0.65855165114472240183E-09
    0.10039831882878662314E-08
   -0.17141630561484282647E-09
   -0.36676195938944478328E-09
    0.28684334966263577974E-09
   -0.59202580630180050962E-09
   -0.47936045515476161243E-10
    0.93527005022661340059E-09
    0.55134552018270689109E-09
    0.16899686264601508836E-08
    0.63044546077010418846E-09
    0.14830288664306483736E-08
    0.30527199772368853591E-09
    0.32236380114673706083E-09
   -0.86596717853163262016E-09
   -0.58342479817547895203E-09
   -0.12099141487210822944E-08
   -0.11091261009960963452E-08
   -0.70208390530759304902E-09
   -0.12657398314079115321E-08
   -0.10910055299133452634E-08
   -0.59858522512973027759E-09
   -0.97235276899773440116E-09
   -0.63459620095228784318E-09
   -0.40956380374840518839E-09
   -0.71225956001454750505E-09
   -0.12344713305302714814E-08
   -0.12606510993550678772E-08
   -0.11727129051326135876E-08
   -0.75031422871221202269E-09
   -0.12853193219425548111E-08
   -0.11542581748094603318E-08
   -0.76706221811462646240E-09
   -0.12954229604649139807E-08
   -0.11425350217300871399E-08
   -0.74449792683625899023E-09
   -0.12569528925327624515E-08
   -0.10810192693128826862E-08
   -0.75541615917159642078E-09
   -0.12317696997488109781E-08
   -0.14136196708668049452E-08
   -0.13969302074422737509E-08
   -0.11860074704613976461E-08
   -0.75574810548538620933E-09
   -0.12834594519844640495E-08
   -0.11523530933466120466E-08
   -0.76846338677120352146E-09
   -0.12962273352721008539E-08
   -0.11447334765927771190E-08
   -0.75033547275622566766E-09
   -0.12705698395868598850E-08
   -0.11052200429407331709E-08
   -0.77212022203187153137E-09
   -0.12605360021692317726E-08
   -0.14204802098862971434E-08
   -0.14017384088496658856E-08
   -0.11733299970690477513E-08
   -0.75138418532418901319E-09
   -0.12832017319320303792E-08
   -0.11520334317890353060E-08
   -0.77158677226759478196E-09
   -0.13068644409565265371E-08
   -0.11677694753192183342E-08
   -0.75901616404851927602E-09
   -0.12781311974261179022E-08
   -0.10928015682214845012E-08
   -0.76039817639244628987E-09
   -0.12336103049628536524E-08
   -0.14176899544659781919E-08
   -0.14027858267943263730E-08
   -0.11222977747578423130E-08
   -0.63240707812388065929E-09
   -0.75809568057920942831E-09
   -0.62691445964812426845E-09
   -0.64859252271616198979E-09
   -0.12433797381765673810E-08
   -0.11578713891268521776E-08
   -0.75599265536400034331E-09
   -0.12904161629312152434E-08
   -0.11156675422381198885E-08
   -0.76823545952336670918E-09
   -0.12502627233814505488E-08
   -0.13921114707908653125E-08
   -0.13751585160173100796E-08
   -0.52693598274174424081E-09
    0.23916671503504480892E-09
   -0.55855563932621372310E-09
   -0.10341397819064992248E-09
    0.10213373656133637906E-08
    0.48585945769055545541E-09
    0.17069732983838104382E-08
    0.57497832482169573611E-09
    0.14415279256438017482E-08
    0.65047505114482891290E-09
    0.90727094401752613528E-09
   -0.20905875363646036770E-09
    0.25238424580678967970E-09
    0.27202547750175011380E-09
   -0.52693412769050061704E-09
    0.23916644066564110495E-09
   -0.55855005687919050433E-09
   -0.10341205858761079970E-09
    0.10213365521972926428E-08
    0.48585815928445267206E-09
    0.17069717243683653826E-08
    0.57497689648815131281E-09
    0.14415251587701495532E-08
    0.65047035556384886192E-09
    0.90726700111585867029E-09
   -0.20906473223705498812E-09
    0.25238233722250311610E-09
    0.27202401689740617823E-09
   -0.11498544286202619116E-08
   -0.69387784348141726942E-09
   -0.12455205443086080171E-08
   -0.10870849167966305092E-08
   -0.61673793690756481464E-09
   -0.10160797337063294632E-08
   -0.66556835548804289038E-09
   -0.42981744496069854269E-09
   -0.85041159785689027579E-09
   -0.82705613761684478814E-09
   -0.62758865351671565535E-09
   -0.11926504462607876857E-08
   -0.12925499516188144129E-08
   -0.12360432987895736036E-08
   -0.11472390742515621999E-08
   -0.69221817498859716172E-09
   -0.12393727173135857392E-08
   -0.10847493991335215019E-08
   -0.61625597281452281153E-09
   -0.10159708622086963778E-08
   -0.66554702583641538620E-09
   -0.42977752225546164482E-09
   -0.85040381073387742548E-09
   -0.82704081934464465578E-09
   -0.62745065371576752431E-09
   -0.11921973647127838930E-08
   -0.12922241672936712890E-08
   -0.12358553319258154228E-08
   -0.52691588902954092007E-09
    0.23917468649319293745E-09
   -0.55852507044849763184E-09
   -0.10340530256809675927E-09
    0.10213377073151289425E-08
    0.48585917004248486424E-09
    0.17069730402950530987E-08
    0.57497760118378559215E-09
    0.14415252124330029288E-08
    0.65046961649351974957E-09
    0.90726752637569684416E-09
   -0.20906132164664206532E-09
    0.25238442072238536315E-09
    0.27202536861931695346E-09
   -0.52687276050975052013E-09
    0.23918971024288931230E-09
   -0.55849077293344913428E-09
   -0.10338882012932375159E-09
    0.10213453822190456755E-08
    0.48586917661510555344E-09
    0.17069784947334580556E-08
    0.57498070601250624228E-09
    0.14415269802617334636E-08
    0.65047067552521888486E-09
    0.90727176149028477404E-09
   -0.20905401450854947254E-09
    0.25239075294344427416E-09
    0.27202999631239526689E-09
   -0.11275417913995049429E-08
   -0.68311801796706838419E-09
   -0.12120945114835251945E-08
   -0.10760145583240040058E-08
   -0.61435821020492430255E-09
   -0.10155983017319927088E-08
   -0.66546245667403041415E-09
   -0.42957002823781580850E-09
   -0.85034730633341437627E-09
   -0.82688637801877383670E-09
   -0.62640919614239964607E-09
   -0.11883782119768469684E-08
   -0.12903751044578112898E-08
   -0.12348919275626572946E-08
   -0.10791746189249402528E-08
   -0.66718108664194942166E-09
   -0.11784438446748226678E-08
   -0.10672629441993343327E-08
   -0.61231703378982715056E-09
   -0.10152589781672891975E-08
   -0.66536088428658958008E-09
   -0.42922539073633127719E-09
   -0.85021696780992396999E-09
   -0.82646549836931160192E-09
   -0.62382400424557155323E-09
   -0.11778338764418108077E-08
   -0.12870260403966676279E-08
   -0.12333397882101737823E-08
   -0.11423706590172261964E-08
   -0.70824819220870376922E-09
   -0.10946158844008082123E-08
   -0.10423056886416485864E-08
   -0.74392505844854144048E-09
   -0.12883680024323768603E-08
   -0.11432472296740995477E-08
   -0.74858704828883606242E-09
   -0.12704946169681672934E-08
   -0.11052333342792067938E-08
   -0.76888057210726193740E-09
   -0.12531638684241867249E-08
   -0.14100088231372591693E-08
   -0.13940170146025719240E-08
   -0.29285157857372148216E-10
    0.14149509523961534846E-09
    0.17484925059370648565E-08
    0.28396957920030276638E-09
   -0.42816457653506400519E-09
   -0.12019648791150466928E-08
   -0.11240567907487946143E-08
   -0.71705676680075065152E-09
   -0.12632970118592496122E-08
   -0.10913559209684130842E-08
   -0.68290683428535000628E-09
   -0.10266686418278671902E-08
   -0.12132203138635445503E-08
   -0.12654866490814842836E-08
    0.49831827888951774261E-08
    0.76497121795636045691E-08
    0.29159273171378056238E-07
    0.21830050260274120446E-07
    0.51445380962285228484E-08
    0.11741708710071650199E-08
   -0.62945833389297171899E-09
   -0.21563415275255121642E-09
   -0.11832293356249927440E-08
   -0.98014820033135078616E-09
   -0.48684193365188418075E-12
    0.42584381315297634988E-10
    0.84282345720408610040E-09
    0.53532179545291530138E-09
    0.19689635090793399817E-06
    0.18757389926316825325E-06
    0.57510862723823062553E-06
    0.34128296579292591682E-06
    0.93658506941442048211E-07
    0.31805455245696949824E-07
    0.70840150829890908765E-08
    0.10555877321205541921E-07
    0.14856678016986731054E-08
    0.32327658153894646160E-08
    0.21893059325804322999E-07
    0.45256237910755756506E-07
    0.50821017945766453750E-07
    0.37886776991260901779E-07
    0.95120529137581077403E-08
    0.53627973236528430094E-08
    0.15898283544563896113E-07
    0.57237118384120942631E-08
    0.94191141063227781641E-09
   -0.87909984032330561521E-09
   -0.10408009238749223348E-08
   -0.53484860141535952300E-09
   -0.12099840782598472939E-08
   -0.96765574326321923737E-09
    0.25533892357406815226E-10
    0.11207284220138902211E-08
    0.31989394209670365050E-10
   -0.53636622678794605072E-09
    0.35162302738049470749E-07
    0.15212389252536466630E-07
    0.34642786936467793692E-07
    0.11446373672262746831E-07
    0.25057848856609836403E-08
   -0.57881336987499926674E-09
   -0.94000860258752529660E-09
   -0.21621787240030859373E-09
   -0.10797468070904436619E-08
   -0.60348088202431274944E-09
    0.19315028432760715995E-08
    0.77080821732542497839E-08
    0.24594075673382101509E-08
    0.71781645280933274618E-09
    0.21241793296428503689E-05
    0.14588476961936456256E-05
    0.36733117446185672853E-05
    0.18024026030659600559E-05
    0.52749128492144391110E-06
    0.15840706179014537396E-06
    0.44609974045472697832E-07
    0.81556673102283951898E-07
    0.24103015614422200875E-07
    0.46919407109241123364E-07
    0.23060020079500460805E-06
    0.55598328095930268396E-06
    0.41501174347980480894E-06
    0.27960881882288806212E-06
    0.78515932511926149804E-05
    0.40638893000078967868E-05
    0.81080554743778643405E-05
    0.34260939039220696033E-05
    0.10603937294221377774E-05
    0.28242330704393209413E-06
    0.93311866306312020806E-07
    0.21624066477919197015E-06
    0.84644537463164778182E-07
    0.19019859519710925986E-06
    0.84882746975243105532E-06
    0.23251681829646186741E-05
    0.11887906269331844968E-05
    0.72936279951008917320E-06
    0.65854396830494664475E-09
    0.10039675791790035674E-08
   -0.17142450867038558609E-09
   -0.36678181925398430351E-09
    0.28677424780674946917E-09
   -0.59221352172602601342E-09
   -0.48419438880818439399E-10
    0.93503445291529384226E-09
    0.55096292376410906389E-09
    0.16897900218656615137E-08
    0.63038129156436956453E-09
    0.14830088471097447843E-08
    0.30522243749582114363E-09
    0.32228406992123605070E-09
   -0.86596309683209360464E-09
   -0.58340053611357595214E-09
   -0.12097088713921419563E-08
   -0.11086824805146130740E-08
   -0.70205370794172519355E-09
   -0.12658223130616963657E-08
   -0.10914947639972020682E-08
   -0.59882708132821229390E-09
   -0.97275617405256850218E-09
   -0.63478132911114850676E-09
   -0.40962573974632211874E-09
   -0.71227735765150827299E-09
   -0.12345102952503855872E-08
   -0.12607156841245991782E-08
    0.65854426773639531328E-09
    0.10039670466549784745E-08
   -0.17142352324331684357E-09
   -0.36677380635394815784E-09
    0.28677529923388823703E-09
   -0.59221219600195056031E-09
   -0.48422770580668474865E-10
    0.93503180318692008553E-09
    0.55095974420062271590E-09
    0.16897886605388474131E-08
    0.63038116812656215003E-09
    0.14830085208700846654E-08
    0.30522196570561450232E-09
    0.32228308351626296258E-09
   -0.86585605860669001915E-09
   -0.58291836739778033471E-09
   -0.12073744569422149416E-08
   -0.11025335918600541431E-08
   -0.70039397002384534417E-09
   -0.12632073510568127823E-08
   -0.10910415113904330107E-08
   -0.59868928259409664021E-09
   -0.97274049844422158895E-09
   -0.63477644714755788185E-09
   -0.40958631608604508229E-09
   -0.71225534997762295046E-09
   -0.12343236783647118933E-08
   -0.12603917467467486613E-08
   -0.11654583242310468117E-08
   -0.72682047585835490437E-09
   -0.11731024533434050657E-08
   -0.96310520754740634018E-09
   -0.72402205885347051596E-09
   -0.12631346854943384832E-08
   -0.11602669378481322182E-08
   -0.75569876190036861033E-09
   -0.12780318541322663126E-08
   -0.10926686296494280448E-08
   -0.75861848962910959122E-09
   -0.12321115333893103040E-08
   -0.14099347797606551903E-08
   -0.13922680924889403089E-08
    0.12955677552020404486E-08
    0.51612819557897402563E-08
    0.21700035982301190966E-07
    0.29291653091476620564E-07
    0.76340992416990639882E-08
    0.48624054770872113656E-08
    0.13520075590959505843E-09
    0.11969845109394577319E-10
   -0.11547270107031871907E-08
   -0.10083631122458967125E-08
   -0.22770026403201235182E-09
   -0.72170576922107168486E-09
    0.51869531486993835285E-09
    0.86011090126559100861E-09
   -0.10790503701028006678E-08
   -0.41103927977142606771E-09
    0.15321848755688246860E-09
    0.18800962082834484645E-08
    0.12579405334513037628E-09
   -0.14991439954193155509E-09
   -0.93371387220366265775E-09
   -0.66969878077267035859E-09
   -0.12641443276350529868E-08
   -0.10854670715571039679E-08
   -0.72708496618842127011E-09
   -0.12129175950230460001E-08
   -0.12813880586913999601E-08
   -0.11954548392632369437E-08
    0.31927091191649222515E-07
    0.93675857316828791401E-07
    0.34115396628602004508E-06
    0.57524290031415964235E-06
    0.18756015805582157299E-06
    0.19677875959572742105E-06
    0.45350385353900919604E-07
    0.21906377556155654611E-07
    0.30585450383877676842E-08
    0.16607558010485420716E-08
    0.10544143405317058450E-07
    0.69919279199283195332E-08
    0.37870840566593577333E-07
    0.50839255919703981516E-07
    0.65854438523848793157E-09
    0.10039684595779695183E-08
   -0.17141672645359035478E-09
   -0.36675087681937778083E-09
    0.28678374614797712645E-09
   -0.59219282373011529129E-09
   -0.48420664715791936182E-10
    0.93503340289614365599E-09
    0.55096008554653332069E-09
    0.16897889510325347031E-08
    0.63038139777076715055E-09
    0.14830097688247114273E-08
    0.30522314260120864518E-09
    0.32228521780500695474E-09
   -0.86548547688109730546E-09
   -0.58101957022526958378E-09
   -0.11986393595401491542E-08
   -0.10752547119672518830E-08
   -0.69129306685129049497E-09
   -0.12435074172272767982E-08
   -0.10872199443447930885E-08
   -0.59764473863410554103E-09
   -0.97258476621584982280E-09
   -0.63471968123656354481E-09
   -0.40937845330731242667E-09
   -0.71217209979908432252E-09
   -0.12333596724567582111E-08
   -0.12585384093675784718E-08
    0.65855280657669439434E-09
    0.10039740021301867717E-08
   -0.17140401840397208617E-09
   -0.36671960750727863129E-09
    0.28679643184924353145E-09
   -0.59215075651734684245E-09
   -0.48412403566834518519E-10
    0.93503527622063967173E-09
    0.55096058417671824978E-09
    0.16897897493219217291E-08
    0.63038387078362264819E-09
    0.14830148159650987879E-08
    0.30522620049090968856E-09
    0.32228844563035410376E-09
   -0.86515370075103842655E-09
   -0.57898470239651878524E-09
   -0.11898916371447457977E-08
   -0.10416052775619953137E-08
   -0.67535843810624217097E-09
   -0.11951410275331934627E-08
   -0.10766792711662629385E-08
   -0.59506433311018262738E-09
   -0.97216778175272644138E-09
   -0.63458957134405219903E-09
   -0.40903747735436342589E-09
   -0.71207434611654164888E-09
   -0.12318106861405931017E-08
   -0.12551935557310162144E-08
   -0.75618491893840929073E-09
    0.95903972234707517397E-09
    0.55929671910754692809E-08
    0.16029899966350454637E-07
    0.53471143504932270122E-08
    0.93914749747858859212E-08
    0.12137193693503140540E-08
    0.38754483961211199433E-10
   -0.11404408947219517148E-08
   -0.10321529560727879371E-08
   -0.54487250606424198744E-09
   -0.11296609372440329860E-08
   -0.55226115409400881332E-09
    0.49764708906291644463E-10
    0.15852870807397514850E-06
    0.52750866272881733033E-06
    0.18022736117829428088E-05
    0.36734459853159298451E-05
    0.14588341638226160127E-05
    0.21240622084571227623E-05
    0.55607812371029928492E-06
    0.23061381895237597765E-06
    0.46745368900087581380E-07
    0.24278190066716429419E-07
    0.81545006149288050046E-07
    0.44517908277479112038E-07
    0.27959298415770133775E-06