# vtk DataFile Version 3.0
LAPLACIEN  2D
ASCII
DATASET UNSTRUCTURED_GRID
 POINTS        1857  float
   3.1250000000000000E-002  0.93750000000000000        0.0000000000000000     
   6.2500000000000000E-002  0.93750000000000000        0.0000000000000000     
   6.2500000000000000E-002  0.96875000000000000        0.0000000000000000     
   1.8749999999999999E-002  0.95625000000000004        0.0000000000000000     
   4.0625000000000001E-002  0.95937499999999998        0.0000000000000000     
   4.3749999999999997E-002  0.98124999999999996        0.0000000000000000     
   2.1874999999999999E-002  0.97812500000000002        0.0000000000000000     
   9.3750000000000000E-002  0.93750000000000000        0.0000000000000000     
  0.12500000000000000       0.93750000000000000        0.0000000000000000     
  0.12500000000000000       0.96875000000000000        0.0000000000000000     
   8.1250000000000003E-002  0.95625000000000004        0.0000000000000000     
  0.10312499999999999       0.95937499999999998        0.0000000000000000     
  0.10625000000000000       0.98124999999999996        0.0000000000000000     
   8.4375000000000006E-002  0.97812500000000002        0.0000000000000000     
   3.1250000000000000E-002  0.87500000000000000        0.0000000000000000     
   6.2500000000000000E-002  0.87500000000000000        0.0000000000000000     
   6.2500000000000000E-002  0.90625000000000000        0.0000000000000000     
   1.8749999999999999E-002  0.89375000000000004        0.0000000000000000     
   4.0625000000000001E-002  0.89687499999999998        0.0000000000000000     
   4.3749999999999997E-002  0.91874999999999996        0.0000000000000000     
   2.1874999999999999E-002  0.91562500000000002        0.0000000000000000     
   9.3750000000000000E-002  0.87500000000000000        0.0000000000000000     
  0.12500000000000000       0.87500000000000000        0.0000000000000000     
  0.12500000000000000       0.90625000000000000        0.0000000000000000     
   8.1250000000000003E-002  0.89375000000000004        0.0000000000000000     
  0.10312499999999999       0.89687499999999998        0.0000000000000000     
  0.10625000000000000       0.91874999999999996        0.0000000000000000     
   8.4375000000000006E-002  0.91562500000000002        0.0000000000000000     
  0.15625000000000000       0.93750000000000000        0.0000000000000000     
  0.18750000000000000       0.93750000000000000        0.0000000000000000     
  0.18750000000000000       0.96875000000000000        0.0000000000000000     
  0.14374999999999999       0.95625000000000004        0.0000000000000000     
  0.16562499999999999       0.95937499999999998        0.0000000000000000     
  0.16875000000000001       0.98124999999999996        0.0000000000000000     
  0.14687500000000001       0.97812500000000002        0.0000000000000000     
  0.21875000000000000       0.93750000000000000        0.0000000000000000     
  0.25000000000000000       0.93750000000000000        0.0000000000000000     
  0.25000000000000000       0.96875000000000000        0.0000000000000000     
  0.20624999999999999       0.95625000000000004        0.0000000000000000     
  0.22812499999999999       0.95937499999999998        0.0000000000000000     
  0.23125000000000001       0.98124999999999996        0.0000000000000000     
  0.20937500000000001       0.97812500000000002        0.0000000000000000     
  0.15625000000000000       0.87500000000000000        0.0000000000000000     
  0.18750000000000000       0.87500000000000000        0.0000000000000000     
  0.18750000000000000       0.90625000000000000        0.0000000000000000     
  0.14374999999999999       0.89375000000000004        0.0000000000000000     
  0.16562499999999999       0.89687499999999998        0.0000000000000000     
  0.16875000000000001       0.91874999999999996        0.0000000000000000     
  0.14687500000000001       0.91562500000000002        0.0000000000000000     
  0.21875000000000000       0.87500000000000000        0.0000000000000000     
  0.25000000000000000       0.87500000000000000        0.0000000000000000     
  0.25000000000000000       0.90625000000000000        0.0000000000000000     
  0.20624999999999999       0.89375000000000004        0.0000000000000000     
  0.22812499999999999       0.89687499999999998        0.0000000000000000     
  0.23125000000000001       0.91874999999999996        0.0000000000000000     
  0.20937500000000001       0.91562500000000002        0.0000000000000000     
   3.1250000000000000E-002  0.81250000000000000        0.0000000000000000     
   6.2500000000000000E-002  0.81250000000000000        0.0000000000000000     
   6.2500000000000000E-002  0.84375000000000000        0.0000000000000000     
   1.8749999999999999E-002  0.83125000000000004        0.0000000000000000     
   4.0625000000000001E-002  0.83437499999999998        0.0000000000000000     
   4.3749999999999997E-002  0.85624999999999996        0.0000000000000000     
   2.1874999999999999E-002  0.85312500000000002        0.0000000000000000     
   9.3750000000000000E-002  0.81250000000000000        0.0000000000000000     
  0.12500000000000000       0.81250000000000000        0.0000000000000000     
  0.12500000000000000       0.84375000000000000        0.0000000000000000     
   8.1250000000000003E-002  0.83125000000000004        0.0000000000000000     
  0.10312499999999999       0.83437499999999998        0.0000000000000000     
  0.10625000000000000       0.85624999999999996        0.0000000000000000     
   8.4375000000000006E-002  0.85312500000000002        0.0000000000000000     
   3.1250000000000000E-002  0.75000000000000000        0.0000000000000000     
   6.2500000000000000E-002  0.75000000000000000        0.0000000000000000     
   6.2500000000000000E-002  0.78125000000000000        0.0000000000000000     
   1.8749999999999999E-002  0.76875000000000004        0.0000000000000000     
   4.0625000000000001E-002  0.77187499999999998        0.0000000000000000     
   4.3749999999999997E-002  0.79374999999999996        0.0000000000000000     
   2.1874999999999999E-002  0.79062500000000002        0.0000000000000000     
   9.3750000000000000E-002  0.75000000000000000        0.0000000000000000     
  0.12500000000000000       0.75000000000000000        0.0000000000000000     
  0.12500000000000000       0.78125000000000000        0.0000000000000000     
   8.1250000000000003E-002  0.76875000000000004        0.0000000000000000     
  0.10312499999999999       0.77187499999999998        0.0000000000000000     
  0.10625000000000000       0.79374999999999996        0.0000000000000000     
   8.4375000000000006E-002  0.79062500000000002        0.0000000000000000     
  0.15625000000000000       0.81250000000000000        0.0000000000000000     
  0.18750000000000000       0.81250000000000000        0.0000000000000000     
  0.18750000000000000       0.84375000000000000        0.0000000000000000     
  0.14374999999999999       0.83125000000000004        0.0000000000000000     
  0.16562499999999999       0.83437499999999998        0.0000000000000000     
  0.16875000000000001       0.85624999999999996        0.0000000000000000     
  0.14687500000000001       0.85312500000000002        0.0000000000000000     
  0.21875000000000000       0.81250000000000000        0.0000000000000000     
  0.25000000000000000       0.81250000000000000        0.0000000000000000     
  0.25000000000000000       0.84375000000000000        0.0000000000000000     
  0.20624999999999999       0.83125000000000004        0.0000000000000000     
  0.22812499999999999       0.83437499999999998        0.0000000000000000     
  0.23125000000000001       0.85624999999999996        0.0000000000000000     
  0.20937500000000001       0.85312500000000002        0.0000000000000000     
  0.15625000000000000       0.75000000000000000        0.0000000000000000     
  0.18750000000000000       0.75000000000000000        0.0000000000000000     
  0.18750000000000000       0.78125000000000000        0.0000000000000000     
  0.14374999999999999       0.76875000000000004        0.0000000000000000     
  0.16562499999999999       0.77187499999999998        0.0000000000000000     
  0.16875000000000001       0.79374999999999996        0.0000000000000000     
  0.14687500000000001       0.79062500000000002        0.0000000000000000     
  0.21875000000000000       0.75000000000000000        0.0000000000000000     
  0.25000000000000000       0.75000000000000000        0.0000000000000000     
  0.25000000000000000       0.78125000000000000        0.0000000000000000     
  0.20624999999999999       0.76875000000000004        0.0000000000000000     
  0.22812499999999999       0.77187499999999998        0.0000000000000000     
  0.23125000000000001       0.79374999999999996        0.0000000000000000     
  0.20937500000000001       0.79062500000000002        0.0000000000000000     
  0.28125000000000000       0.93750000000000000        0.0000000000000000     
  0.31250000000000000       0.93750000000000000        0.0000000000000000     
  0.31250000000000000       0.96875000000000000        0.0000000000000000     
  0.26874999999999999       0.95625000000000004        0.0000000000000000     
  0.29062500000000002       0.95937499999999998        0.0000000000000000     
  0.29375000000000001       0.98124999999999996        0.0000000000000000     
  0.27187499999999998       0.97812500000000002        0.0000000000000000     
  0.34375000000000000       0.93750000000000000        0.0000000000000000     
  0.37500000000000000       0.93750000000000000        0.0000000000000000     
  0.37500000000000000       0.96875000000000000        0.0000000000000000     
  0.33124999999999999       0.95625000000000004        0.0000000000000000     
  0.35312500000000002       0.95937499999999998        0.0000000000000000     
  0.35625000000000001       0.98124999999999996        0.0000000000000000     
[...]
 CELL_DATA        3584
 SCALARS VEGF float
 LOOKUP_TABLE default
    0.43575773594927736619E-08
    0.50002425722397902021E-08
    0.37589267135356615097E-08
    0.38711432336713303574E-08
    0.50581566292635887243E-08
    0.42249107813936527178E-08
    0.54664366622283848714E-08
    0.45844094579800774346E-08
    0.45766454379718688029E-08
    0.47608476166242398356E-08
    0.45619289356624348704E-08
    0.52166939755113921404E-08
    0.47792973455611104099E-08
    0.48076740421062868137E-08
    0.33289415212202816889E-08
    0.40157172402761107932E-08
    0.38221191401788806260E-08
    0.41569016026146398306E-08
    0.46235483126246518823E-08
    0.39655266313953235532E-08
    0.48802197685388019257E-08
    0.39186077833291898054E-08
    0.47911047933195297361E-08
    0.42261094608678374416E-08
    0.44700039638288767102E-08
    0.36104519171313288974E-08
    0.38316745932554361361E-08
    0.37971426154494557685E-08
    0.41406669510351745487E-08
    0.46212311584128699190E-08
    0.41067337267546377374E-08
    0.40003085076492734608E-08
    0.40416646831116599482E-08
    0.32290662809965080716E-08
    0.37204362042858097534E-08
    0.44809651939808277525E-08
    0.41142132003500626171E-08
    0.49994388771188772245E-08
    0.39628318913888436898E-08
    0.46827665870696389166E-08
    0.38273940313101973424E-08
    0.38898348228843535296E-08
    0.73068401818400520482E-08
    0.91833172150993305231E-08
    0.16585478576591582407E-07
    0.16698611172561341745E-07
    0.91431529099206818022E-08
    0.71449781111913641744E-08
    0.44490516326347316326E-08
    0.45025873022894281343E-08
    0.32165615054682928866E-08
    0.33783092393560936763E-08
    0.45019749660174962663E-08
    0.44096287384992788608E-08
    0.53731701597454159916E-08
    0.53834966475084803351E-08
    0.70783746992430553759E-08
    0.83494307491717589575E-08
    0.13168931572441844305E-07
    0.12306633713436074672E-07
    0.83251579002036295086E-08
    0.67192264168823061696E-08
    0.63411828251388748225E-08
    0.49286598394930399534E-08
    0.50209690416794580360E-08
    0.42678624087787765661E-08
    0.53118829291922598760E-08
    0.46482016525990927276E-08
    0.58278949963898253943E-08
    0.57310454529780675178E-08
    0.33364636456070859242E-07
    0.34123134408883453634E-07
    0.61942197967661979418E-07
    0.51755153485796782976E-07
    0.27348486027856138130E-07
    0.19926446560142900378E-07
    0.14473395441623265476E-07
    0.11947834360650861761E-07
    0.89225832790122749483E-08
    0.79482452523599717909E-08
    0.13477047818157925554E-07
    0.15922099474890924751E-07
    0.18834935083671627162E-07
    0.17636530781991762259E-07
    0.53748588224736503521E-07
    0.63551357824037732285E-07
    0.12600107815664721221E-06
    0.11764530103600363731E-06
    0.57187285668008652073E-07
    0.41132529201018488235E-07
    0.19119559626175780142E-07
    0.18630435459661277057E-07
    0.89387266994842830681E-08
    0.93681145373791768553E-08
    0.20319855181178699088E-07
    0.23770081117269891529E-07
    0.33644040022499259276E-07
    0.32538768618788150390E-07
    0.36047611418735436524E-06
    0.38249990333053301767E-06
    0.71830330959509263788E-06
    0.62383873235907956630E-06
    0.30534613001234090783E-06
    0.20410778171026927714E-06
    0.94915322703001059439E-07
    0.10012354968248732993E-06
    0.47583692630768586694E-07
    0.53701297469345261668E-07
    0.12521001235200379606E-06
    0.16243061320078924566E-06
    0.20151515681487623971E-06
    0.18718162082850231431E-06
    0.69055100099273188587E-08
    0.83376079022164212178E-08
    0.12269395667649316262E-07
    0.13363968580963169106E-07
    0.84004809441213789894E-08
    0.70157787841233298004E-08
    0.48080810343766304506E-08
    0.53577464954698768769E-08
    0.41913639673433936511E-08
    0.52578574233888948244E-08
    0.49938126286889709197E-08
    0.61583703216860934059E-08
    0.57823586968973235621E-08
    0.59106404317951595915E-08
    0.41307270124973709949E-07
    0.57244485234641525415E-07
    0.11754638206129904171E-06
    0.12613230405729830976E-06
    0.63538595998305683617E-07
    0.53625604027601084143E-07
    0.23862758838557772773E-07
    0.20362322879792926561E-07
    0.92557119803163633022E-08
    0.91385359858641923578E-08
    0.18655966817115979315E-07
    0.19097410374780875138E-07
    0.32553374520229346086E-07
    0.33683079291614557513E-07
    0.20115068687418909310E-07
    0.27364031500266522062E-07
    0.51720505315123104756E-07
    0.62140609652748892423E-07
    0.34179353796490300605E-07
    0.33309624229309630743E-07
    0.16092222947667436897E-07
    0.13530648374653069393E-07
    0.78805630297255319425E-08
    0.91663924063171206043E-08
    0.12017747024988913786E-07
    0.14293786355182721008E-07
    0.17692404884931630190E-07
    0.18922973429994086724E-07
    0.20428500857780514800E-06
    0.30540664662874079359E-06
    0.62374249104975623281E-06
    0.71843800416536876232E-06
    0.38249267821089998646E-06
    0.36036122264376723939E-06
    0.16253451880698630595E-06
    0.12526108497449929533E-06
    0.53598929391044601607E-07
    0.47791211396542754441E-07
    0.10015431230141380717E-06
    0.94896597564335383391E-07
    0.18720120954340204978E-06
    0.20155999000753062888E-06
    0.40862736205044053385E-06
    0.51828398419284632594E-06
    0.10220644945221486739E-05
    0.10221814703644599044E-05
    0.51825402698166551699E-06
    0.40849109114274835897E-06
    0.18545726198091540977E-06
    0.16712683016097093903E-06
    0.74257162735170500442E-07
    0.74408254392556236746E-07
    0.16711099714408534254E-06
    0.18538271836698705233E-06
    0.29317448699062545790E-06
    0.29318850022400067384E-06
    0.29993883623518091595E-05
    0.34186941958709559034E-05
    0.63120959139297575592E-05
    0.58556531020981177857E-05
    0.30290346395940925035E-05
    0.22125860364526463161E-05
    0.10611761922811494331E-05
    0.10501312296448466115E-05
    0.50482879323001504317E-06
    0.53959447061454034166E-06
    0.11864264724159091422E-05
    0.14208280744048669253E-05
    0.19344027880925942660E-05
    0.18600132150288930943E-05
    0.22127243271029812632E-05
    0.30290672848815404865E-05
    0.58555373123783830894E-05
    0.63122149589666023877E-05
    0.34186693181674061760E-05
    0.29992600722841289711E-05
    0.14209138658114887191E-05
    0.11864509764718717117E-05
    0.53945373533995484619E-06
    0.50498795150694641598E-06
    0.10501206951793938647E-05
    0.10611050429478878548E-05
    0.18600040034904898812E-05
    0.19344224384810608575E-05
    0.17637568244242639277E-04
    0.21838879267187748766E-04
    0.39679434387330844562E-04
    0.39679556091577182248E-04
    0.21838854630921587292E-04
    0.17637443296189772053E-04
    0.88287855363621651496E-05
    0.81181739096197720547E-05
    0.39981769045658740959E-05
    0.39983255714717575585E-05
    0.81181539517193715064E-05
    0.88287010885399424100E-05
    0.13368139201424400955E-04
    0.13368154570613991657E-04
    0.14345222423601498233E-06
    0.13054321423209135711E-06
    0.22928478070011169516E-06
    0.17786644492389301659E-06
    0.90046895818605491077E-07
    0.60589533682084717654E-07
    0.41457279480581346180E-07
    0.37607487695813353189E-07
    0.24925876766038099592E-07
    0.24171801290375496333E-07
    0.47580508924545358782E-07
    0.66324462715962659259E-07
    0.68007511688405019677E-07
    0.60899882319674169843E-07
    0.44971325333122505034E-06
    0.36978317456805453883E-06
    0.60555448996931692100E-06
    0.44166620976116537552E-06
    0.22580847678091819981E-06
    0.14265661703510424009E-06
    0.10047463645520555891E-06
    0.99695707590291825442E-07
    0.68143394503487160344E-07
    0.70943829196199186156E-07
    0.14217616309404357772E-06
    0.21591779259996222591E-06
    0.19127094481911881894E-06
    0.16503852680278834088E-06
    0.17129093538052489038E-05
    0.16322998830609062457E-05
    0.28477031943060412707E-05
    0.23112200887061239548E-05
    0.11580446755474629406E-05
    0.72457121972845988593E-06
    0.35434199187709351583E-06
    0.40949033649226124141E-06
    0.20983247137836629270E-06
    0.25327761027903172562E-06
    0.57991443141486380946E-06
    0.81016553641358777943E-06
    0.86363796875370692039E-06
    0.77271282503831878378E-06
    0.56269627569270899231E-05
    0.48389813739275593582E-05
    0.77883176527220131219E-05
    0.59416105483645499974E-05
    0.30602750494654164053E-05
    0.18028106023503718381E-05
    0.93575940858769383184E-06
    0.11827228225241426229E-05
    0.66252085982361108188E-06
    0.85061232968439107661E-06
    0.18864242013093852089E-05
    0.28132550037905741368E-05
    0.25791333365941599613E-05
    0.22276545062808492382E-05
    0.99573747166530470764E-06
    0.74556691311960809028E-06
    0.11259608438942855730E-05
    0.77634974235265190128E-06
    0.40629382447589563638E-06
    0.24282021529795303633E-06
    0.18040672602836680988E-06
    0.19487650997201861193E-06
    0.14358991353587775591E-06
    0.15870208497427264930E-06
    0.31187709863150469140E-06
    0.50420138096086698049E-06
    0.38751784484743992620E-06
    0.32324503617991332368E-06
    0.15500975475658869220E-05
    0.10625077256848434581E-05
    0.14703485076070230032E-05
    0.96136747468139203539E-06
    0.51775008440563267093E-06
    0.29395931075269926337E-06
    0.23224256133754558698E-06
    0.27253095074040745809E-06
    0.21911659171321491155E-06
    0.25579290123379091817E-06
    0.48786280196391457221E-06
    0.83264523692135030595E-06
    0.55698070771832472815E-06
    0.44982913592023568936E-06
    0.12783894456222629816E-04
    0.99858718727062984269E-05
    0.14760468702766898268E-04
    0.10633007479440457357E-04
    0.56416635618774583463E-05
    0.31419314436404824454E-05
    0.17364090650157302145E-05
    0.23949827105837684431E-05
    0.14718721962977614979E-05
    0.20023536339380330089E-05
    0.42865844745145021823E-05
    0.67825966874344343304E-05
    0.53711007016646743984E-05
    0.44859030342328276540E-05
    0.20176319967752628969E-04
    0.14390785758111127057E-04
    0.19441444660439988424E-04
    0.13260886944257906737E-04
    0.72628297286584939997E-05
    0.38338199303553486570E-05
    0.22617651891354904650E-05
    0.34000956876596688201E-05
    0.22970753466841719421E-05
    0.33027450318860774921E-05
    0.68163889757637670681E-05
    0.11395759584609109171E-04
    0.78193741277945972673E-05
    0.63206017397695494971E-05
    0.15349801632111516092E-04
    0.15604902225231555307E-04
    0.26707474920898929984E-04
    0.22981859851390269879E-04
    0.12176290215053355847E-04
    0.82619051995778352399E-05
    0.42111170396451814860E-05
    0.45948683448506482806E-05
    0.24155414375859014388E-05
    0.27633656670703216875E-05
    0.59031107414132150360E-05
    0.76395137368544971482E-05
    0.88374146079037058278E-05
    0.81639637653332607206E-05
    0.53245655551438758179E-04
    0.48376857787011884261E-04
    0.76118692799252379399E-04
    0.61210632480105335975E-04
    0.33351934762300102563E-04
    0.21182474933601040678E-04
    0.11506414907789484295E-04
    0.13801301591512872365E-04
    0.79726161130981338683E-05
    0.97385854573848311015E-05
    0.20127784841508158123E-04
    0.28036390526384343241E-04
    0.27526271418455246822E-04
    0.24479179492149520707E-04
    0.99900618204128434591E-04
    0.10984395520896292396E-03
    0.18551252323330472810E-03
    0.17024519196688354516E-03
    0.95462183243397481249E-04
    0.70610783310441998487E-04
    0.37563854900468049989E-04
    0.38413304700040128191E-04
    0.20676051141705236906E-04
    0.22247064042592927085E-04
    0.44131485380646694368E-04
    0.52263121629572899891E-04
    0.66770219089170768545E-04
    0.63892804436423782078E-04
    0.37798151655808005442E-03
    0.36475249030029968916E-03
    0.56198841379547469221E-03
    0.47700508479429757800E-03
    0.27518180275662836249E-03
    0.18858913221229655082E-03
    0.10724716930270836624E-03
    0.12174909980241760789E-03
    0.72317682219603501284E-04
    0.83810567349139211777E-04
    0.16149769241207337215E-03
    0.20905734588881906598E-03
    0.22166653952654768035E-03
    0.20307160726456817434E-03
    0.12473167570369996524E-03
    0.10232866038920344562E-03
    0.14740362235791536379E-03
    0.11162724068462378190E-03
    0.62731206627011744576E-04
    0.37531033471170202240E-04
    0.21763982117995190599E-04
    0.28579790139920030522E-04
    0.18170687517230233588E-04
    0.23584980679285374116E-04
    0.47013876674892794390E-04
    0.69881464706614623708E-04
    0.58717185769250616249E-04
    0.50413210501215254217E-04
    0.19988945667896723538E-03
    0.14922225777591036056E-03
    0.19595340617427342697E-03
    0.14024474200366386883E-03
    0.81495458868165569929E-04
    0.46086106714516054342E-04
    0.28597726633237399789E-04
    0.41039345147997006709E-04
    0.28751190744111450472E-04
    0.39514848011121022004E-04
    0.75854411101776639801E-04
    0.11955995590499801802E-03
    0.86513986564238740009E-04
    0.71819220126032756084E-04
    0.91752302767403889992E-03
    0.79245239090350695979E-03
    0.11080233952369337568E-02
    0.88526563210173021302E-03
    0.52888995507822987932E-03
    0.34046128123818466919E-03
    0.20741088786774749815E-03
    0.25898741367824423994E-03
    0.17017829451772181130E-03
    0.21066817438771312846E-03
    0.39094310365024776853E-03
    0.54461315186733749716E-03
    0.48661820661580261439E-03
    0.42954682070534450132E-03
    0.14819149406358350391E-02
    0.11644003659563059543E-02
    0.14786109381762094564E-02
    0.11174336576883494524E-02
    0.69269674357461444823E-03
    0.42072347630420643379E-03
    0.27510551828931320345E-03
    0.37637937556077815087E-03
    0.27344367567260353773E-03
    0.35907610771383584574E-03
    0.63968217796004885663E-03
    0.94656196336061020329E-03
    0.72472677865470915091E-03
    0.61843347888365630093E-03
    0.60778564289087525222E-07
    0.90062995677433511158E-07
    0.17783224380419699081E-06
    0.22948377847384733755E-06
    0.13060039203733010257E-06
    0.14339865198963883563E-06
    0.66496606613511737362E-07
    0.47635635325786212506E-07
    0.24105931085984205844E-07
    0.25171071090316972831E-07
    0.37678311038489307657E-07
    0.41278256813880927694E-07
    0.60956612875707596526E-07
    0.68096552057241328890E-07
    0.72474881773175035836E-06
    0.11581056375752363675E-05
    0.23111239943848352259E-05
    0.28478378860535926981E-05
    0.16322933658735734452E-05
    0.17127956044059924997E-05
    0.81027146112569907530E-06
    0.57996705330076686920E-06
    0.25317714860167585030E-06
    0.21004143514163220470E-06
    0.40952201973809412948E-06
    0.35432384870303262941E-06
    0.77273322549555637156E-06
    0.86368374373619962647E-06
    0.14284571415257321475E-06
    0.22582467113297535484E-06
    0.44163210896179938841E-06
    0.60575360962511036489E-06
    0.36984051886678232249E-06
    0.44965991781875356888E-06
    0.21609028201446837021E-06
    0.14223154693358366738E-06
    0.70878266272647537604E-07
    0.68388816738317723041E-07
    0.99766678954926461415E-07
    0.10029570514687433731E-06
    0.16509539950464079124E-06
    0.19136015455222319984E-06
    0.18029883392304186739E-05
    0.30603361605840610203E-05
    0.59415145713802206109E-05
    0.77884519225378158746E-05
    0.48389747109854581598E-05
    0.56268484082878932761E-05
    0.28133609588878811858E-05
    0.18864769806929305414E-05
    0.85051214172636859884E-06
    0.66273004919743530501E-06
    0.11827546682886243778E-05
    0.93574139358975220590E-06
    0.22276750417213441213E-05
    0.25791792144648368570E-05
    0.82620412940354143682E-05
    0.12176318282223890112E-04
    0.22981732592025270573E-04
    0.26707578127770754094E-04
    0.15604870773836478120E-04
    0.15349668085779479454E-04
    0.76395991260757832868E-05
    0.59031348997979718823E-05
    0.27632261447966311414E-05
    0.24157014801804894672E-05
    0.45948573739153835281E-05
    0.42110453786100628481E-05
    0.81639523913708791816E-05
    0.88374318469864918233E-05
    0.70610841727523554674E-04
    0.95462110095684971208E-04
    0.17024485551042330481E-03
    0.18551244320772625196E-03
    0.10984384813168418537E-03
    0.99900461532347037733E-04
    0.52263194702621542720E-04
    0.44131485954929110152E-04
    0.22246908061491326434E-04
    0.20676191188761935079E-04
    0.38413259917918229111E-04
    0.37563743501051537037E-04
    0.63892740761364443338E-04
    0.66770189113664208118E-04
    0.21182607573338172510E-04
    0.33351952448076665429E-04
    0.61210478223244199408E-04
    0.76118745509308073497E-04
    0.48376799236328119460E-04
    0.53245483246403900836E-04
    0.28036460901632564562E-04
    0.20127801266047522732E-04
    0.97384433413085217979E-05
    0.79727747417890474952E-05
    0.13801287822116142172E-04
    0.11506341954299662250E-04
    0.24479160577148116216E-04
    0.27526278170922626826E-04
    0.18858897907352692772E-03
    0.27518128004037011817E-03
    0.47700374326035152681E-03
    0.56198686672714827286E-03
    0.36475161319124806743E-03
    0.37798057822391518306E-03
    0.20905709692459626607E-03
    0.16149746748029064560E-03
    0.83810325158656997233E-04
    0.72317757614359532087E-04
    0.12174891892075287252E-03
    0.10724696392986070477E-03
    0.20307124329831005463E-03
    0.22166615160106411500E-03
    0.24300932840717175636E-06
    0.40631006222870424590E-06
    0.77631571734604390920E-06
    0.11261600656279936067E-05
    0.74562434601156805269E-06
    0.99568425558545478275E-06
    0.50437396341941258442E-06
    0.31193254322247741356E-06
    0.15863657246676939273E-06
    0.14383537199448294686E-06
    0.19494750955174344332E-06
    0.18022780999833692019E-06
    0.32330195124776012789E-06
    0.38760710850102936448E-06
    0.31421094220043855504E-05
    0.56417251053918878728E-05
    0.10632912210858751133E-04
    0.14760603275535954054E-04
    0.99858656220611451810E-05
    0.12783780021575421408E-04
    0.67827028766552733015E-05
    0.42866375514804575412E-05
    0.20022536101920426368E-05
    0.14720815311053989355E-05
    0.23950147802401649478E-05
    0.17363911991152161292E-05
    0.44859239362639601506E-05
    0.53711469665981386975E-05
    0.29414843959496464963E-06
    0.51776635226824851709E-06
    0.96133352370580202300E-06
    0.14705478696989466485E-05
    0.10625652479929593948E-05
    0.15500444674731772010E-05
    0.83281789488615369260E-06
    0.48791827958341442495E-06
    0.25572740214624825865E-06
    0.21936205547994466059E-06
    0.27260196469360126340E-06
    0.23206365825911670536E-06
    0.44988607705287081452E-06
    0.55707001006604451671E-06
    0.38339984665720430599E-05
    0.72628924549794956678E-05
    0.13260794427816728180E-04
    0.19441583409937485669E-04
    0.14390781537972094584E-04
    0.20176207213227463774E-04
    0.11395866721777361423E-04
    0.68164427200681586606E-05
    0.33026452826693123936E-05
    0.22972848788539942887E-05
    0.34001281284758773297E-05
    0.22617475751238520769E-05
    0.63206234397349290855E-05
    0.78194213556967944031E-05
    0.37531164451974184258E-04
    0.62731214713419522228E-04
    0.11162706158390170875E-03
    0.14740361513188474465E-03
    0.10232856271933068646E-03
    0.12473142889786939112E-03
    0.69881505779517325266E-04
    0.47013881438453339215E-04
    0.23584835260630812028E-04
    0.18170845078756254722E-04
    0.28579774045150375581E-04
    0.21763908791780034680E-04
    0.50413183221962483958E-04
    0.58717178986399419039E-04
    0.34046094051725115997E-03
    0.52888894760942987104E-03
    0.88526340415406043569E-03
    0.11080201819374437683E-02
    0.79245013192209682630E-03
    0.91751973432992802327E-03
    0.54461176874148406468E-03
    0.39094229705335248196E-03
    0.21066770606397895184E-03
    0.17017823746482668820E-03
    0.25898701624464356193E-03
    0.20741057177780584226E-03
    0.42954597927654807098E-03