# vtk DataFile Version 3.0
LAPLACIEN  2D
ASCII
DATASET UNSTRUCTURED_GRID
 POINTS        1857  float
   3.1250000000000000E-002  0.93750000000000000        0.0000000000000000     
   6.2500000000000000E-002  0.93750000000000000        0.0000000000000000     
   6.2500000000000000E-002  0.96875000000000000        0.0000000000000000     
   1.8749999999999999E-002  0.95625000000000004        0.0000000000000000     
   4.0625000000000001E-002  0.95937499999999998        0.0000000000000000     
   4.3749999999999997E-002  0.98124999999999996        0.0000000000000000     
   2.1874999999999999E-002  0.97812500000000002        0.0000000000000000     
   9.3750000000000000E-002  0.93750000000000000        0.0000000000000000     
  0.12500000000000000       0.93750000000000000        0.0000000000000000     
  0.12500000000000000       0.96875000000000000        0.0000000000000000     
   8.1250000000000003E-002  0.95625000000000004        0.0000000000000000     
  0.10312499999999999       0.95937499999999998        0.0000000000000000     
  0.10625000000000000       0.98124999999999996        0.0000000000000000     
   8.4375000000000006E-002  0.97812500000000002        0.0000000000000000     
   3.1250000000000000E-002  0.87500000000000000        0.0000000000000000     
   6.2500000000000000E-002  0.87500000000000000        0.0000000000000000     
   6.2500000000000000E-002  0.90625000000000000        0.0000000000000000     
   1.8749999999999999E-002  0.89375000000000004        0.0000000000000000     
   4.0625000000000001E-002  0.89687499999999998        0.0000000000000000     
   4.3749999999999997E-002  0.91874999999999996        0.0000000000000000     
   2.1874999999999999E-002  0.91562500000000002        0.0000000000000000     
   9.3750000000000000E-002  0.87500000000000000        0.0000000000000000     
  0.12500000000000000       0.87500000000000000        0.0000000000000000     
  0.12500000000000000       0.90625000000000000        0.0000000000000000     
   8.1250000000000003E-002  0.89375000000000004        0.0000000000000000     
  0.10312499999999999       0.89687499999999998        0.0000000000000000     
  0.10625000000000000       0.91874999999999996        0.0000000000000000     
   8.4375000000000006E-002  0.91562500000000002        0.0000000000000000     
  0.15625000000000000       0.93750000000000000        0.0000000000000000     
  0.18750000000000000       0.93750000000000000        0.0000000000000000     
  0.18750000000000000       0.96875000000000000        0.0000000000000000     
  0.14374999999999999       0.95625000000000004        0.0000000000000000     
  0.16562499999999999       0.95937499999999998        0.0000000000000000     
  0.16875000000000001       0.98124999999999996        0.0000000000000000     
  0.14687500000000001       0.97812500000000002        0.0000000000000000     
  0.21875000000000000       0.93750000000000000        0.0000000000000000     
  0.25000000000000000       0.93750000000000000        0.0000000000000000     
  0.25000000000000000       0.96875000000000000        0.0000000000000000     
  0.20624999999999999       0.95625000000000004        0.0000000000000000     
  0.22812499999999999       0.95937499999999998        0.0000000000000000     
  0.23125000000000001       0.98124999999999996        0.0000000000000000     
  0.20937500000000001       0.97812500000000002        0.0000000000000000     
  0.15625000000000000       0.87500000000000000        0.0000000000000000     
  0.18750000000000000       0.87500000000000000        0.0000000000000000     
  0.18750000000000000       0.90625000000000000        0.0000000000000000     
  0.14374999999999999       0.89375000000000004        0.0000000000000000     
  0.16562499999999999       0.89687499999999998        0.0000000000000000     
  0.16875000000000001       0.91874999999999996        0.0000000000000000     
  0.14687500000000001       0.91562500000000002        0.0000000000000000     
  0.21875000000000000       0.87500000000000000        0.0000000000000000     
  0.25000000000000000       0.87500000000000000        0.0000000000000000     
  0.25000000000000000       0.90625000000000000        0.0000000000000000     
  0.20624999999999999       0.89375000000000004        0.0000000000000000     
  0.22812499999999999       0.89687499999999998        0.0000000000000000     
  0.23125000000000001       0.91874999999999996        0.0000000000000000     
  0.20937500000000001       0.91562500000000002        0.0000000000000000     
   3.1250000000000000E-002  0.81250000000000000        0.0000000000000000     
   6.2500000000000000E-002  0.81250000000000000        0.0000000000000000     
   6.2500000000000000E-002  0.84375000000000000        0.0000000000000000     
   1.8749999999999999E-002  0.83125000000000004        0.0000000000000000     
   4.0625000000000001E-002  0.83437499999999998        0.0000000000000000     
   4.3749999999999997E-002  0.85624999999999996        0.0000000000000000     
   2.1874999999999999E-002  0.85312500000000002        0.0000000000000000     
   9.3750000000000000E-002  0.81250000000000000        0.0000000000000000     
  0.12500000000000000       0.81250000000000000        0.0000000000000000     
  0.12500000000000000       0.84375000000000000        0.0000000000000000     
   8.1250000000000003E-002  0.83125000000000004        0.0000000000000000     
  0.10312499999999999       0.83437499999999998        0.0000000000000000     
  0.10625000000000000       0.85624999999999996        0.0000000000000000     
   8.4375000000000006E-002  0.85312500000000002        0.0000000000000000     
   3.1250000000000000E-002  0.75000000000000000        0.0000000000000000     
   6.2500000000000000E-002  0.75000000000000000        0.0000000000000000     
   6.2500000000000000E-002  0.78125000000000000        0.0000000000000000     
   1.8749999999999999E-002  0.76875000000000004        0.0000000000000000     
   4.0625000000000001E-002  0.77187499999999998        0.0000000000000000     
   4.3749999999999997E-002  0.79374999999999996        0.0000000000000000     
   2.1874999999999999E-002  0.79062500000000002        0.0000000000000000     
   9.3750000000000000E-002  0.75000000000000000        0.0000000000000000     
  0.12500000000000000       0.75000000000000000        0.0000000000000000     
  0.12500000000000000       0.78125000000000000        0.0000000000000000     
   8.1250000000000003E-002  0.76875000000000004        0.0000000000000000     
  0.10312499999999999       0.77187499999999998        0.0000000000000000     
  0.10625000000000000       0.79374999999999996        0.0000000000000000     
   8.4375000000000006E-002  0.79062500000000002        0.0000000000000000     
  0.15625000000000000       0.81250000000000000        0.0000000000000000     
  0.18750000000000000       0.81250000000000000        0.0000000000000000     
  0.18750000000000000       0.84375000000000000        0.0000000000000000     
  0.14374999999999999       0.83125000000000004        0.0000000000000000     
  0.16562499999999999       0.83437499999999998        0.0000000000000000     
  0.16875000000000001       0.85624999999999996        0.0000000000000000     
  0.14687500000000001       0.85312500000000002        0.0000000000000000     
  0.21875000000000000       0.81250000000000000        0.0000000000000000     
  0.25000000000000000       0.81250000000000000        0.0000000000000000     
  0.25000000000000000       0.84375000000000000        0.0000000000000000     
  0.20624999999999999       0.83125000000000004        0.0000000000000000     
  0.22812499999999999       0.83437499999999998        0.0000000000000000     
  0.23125000000000001       0.85624999999999996        0.0000000000000000     
  0.20937500000000001       0.85312500000000002        0.0000000000000000     
  0.15625000000000000       0.75000000000000000        0.0000000000000000     
  0.18750000000000000       0.75000000000000000        0.0000000000000000     
  0.18750000000000000       0.78125000000000000        0.0000000000000000     
  0.14374999999999999       0.76875000000000004        0.0000000000000000     
  0.16562499999999999       0.77187499999999998        0.0000000000000000     
  0.16875000000000001       0.79374999999999996        0.0000000000000000     
  0.14687500000000001       0.79062500000000002        0.0000000000000000     
  0.21875000000000000       0.75000000000000000        0.0000000000000000     
  0.25000000000000000       0.75000000000000000        0.0000000000000000     
  0.25000000000000000       0.78125000000000000        0.0000000000000000     
  0.20624999999999999       0.76875000000000004        0.0000000000000000     
  0.22812499999999999       0.77187499999999998        0.0000000000000000     
  0.23125000000000001       0.79374999999999996        0.0000000000000000     
  0.20937500000000001       0.79062500000000002        0.0000000000000000     
  0.28125000000000000       0.93750000000000000        0.0000000000000000     
  0.31250000000000000       0.93750000000000000        0.0000000000000000     
  0.31250000000000000       0.96875000000000000        0.0000000000000000     
  0.26874999999999999       0.95625000000000004        0.0000000000000000     
  0.29062500000000002       0.95937499999999998        0.0000000000000000     
  0.29375000000000001       0.98124999999999996        0.0000000000000000     
  0.27187499999999998       0.97812500000000002        0.0000000000000000     
  0.34375000000000000       0.93750000000000000        0.0000000000000000     
  0.37500000000000000       0.93750000000000000        0.0000000000000000     
  0.37500000000000000       0.96875000000000000        0.0000000000000000     
  0.33124999999999999       0.95625000000000004        0.0000000000000000     
  0.35312500000000002       0.95937499999999998        0.0000000000000000     
  0.35625000000000001       0.98124999999999996        0.0000000000000000     
[...]
 CELL_DATA        3584
 SCALARS VEGF float
 LOOKUP_TABLE default
    0.43948813429828209395E-08
    0.50394111196145111883E-08
    0.38084686592696727334E-08
    0.39207115184038966374E-08
    0.50973060501698516451E-08
    0.42621592373976046130E-08
    0.54997890222832904954E-08
    0.46161926624816888898E-08
    0.46063070009427611783E-08
    0.47905731051654890713E-08
    0.45937499611985971263E-08
    0.52500589602241596216E-08
    0.48137431790319807891E-08
    0.48421122572365894185E-08
    0.34286809329304589597E-08
    0.41297304999706571335E-08
    0.40252034005658907645E-08
    0.43510079316953429926E-08
    0.47334671353908969671E-08
    0.40612125531176311821E-08
    0.49471366910288061756E-08
    0.39756056755925143862E-08
    0.48341457383582135195E-08
    0.42669057797764225118E-08
    0.45249267083026498185E-08
    0.36697440438290269049E-08
    0.39062902114885322597E-08
    0.38713933919448283986E-08
    0.42363917898139588087E-08
    0.47311422203232107178E-08
    0.43007821496976869651E-08
    0.42033650533499311477E-08
    0.41555683232448569874E-08
    0.33286921060423027643E-08
    0.37796759196284258603E-08
    0.45358498653833112821E-08
    0.41549933177004790947E-08
    0.50424892350353773055E-08
    0.40198310721695518240E-08
    0.47496748882449918487E-08
    0.39016156654468268772E-08
    0.39643981028935947192E-08
    0.79268375939869709670E-08
    0.99637711569200901953E-08
    0.18136239596299334248E-07
    0.18249374925404029071E-07
    0.99235317411326260009E-08
    0.77648880347346781875E-08
    0.47375111074435068029E-08
    0.47622179389627742895E-08
    0.33447002480847099411E-08
    0.35063972100008710101E-08
    0.47615599894709241158E-08
    0.46980867988337386879E-08
    0.58167041509132885251E-08
    0.58270275811018135322E-08
    0.76399022482284144072E-08
    0.89634835166351968893E-08
    0.14331296347161361398E-07
    0.13347747416424348053E-07
    0.88611764380805456509E-08
    0.71467254917612881334E-08
    0.66103105908945694020E-08
    0.51470130961566952757E-08
    0.51519249570104330905E-08
    0.43871670568162860393E-08
    0.55295036674065637805E-08
    0.49112169705933534757E-08
    0.61705634513303588220E-08
    0.60627479955491513934E-08
    0.36319836646627338494E-07
    0.37080428435500655705E-07
    0.67254348781820575141E-07
    0.56239029243832043486E-07
    0.29675336695340527174E-07
    0.21669606493396488246E-07
    0.15603360237521243290E-07
    0.12912474656049181756E-07
    0.95007416610185368154E-08
    0.84897287749544862765E-08
    0.14536538007919926509E-07
    0.17304493211911439554E-07
    0.20451326087377513711E-07
    0.19150433799988825186E-07
    0.58453123679012947637E-07
    0.68991742785695377782E-07
    0.13627034672711081643E-06
    0.12729847976917431063E-06
    0.62108142549461579166E-07
    0.44784520334957755772E-07
    0.20833281662245551963E-07
    0.20283849623709699467E-07
    0.97189322085847921804E-08
    0.10191531963603953040E-07
    0.22149228835826054734E-07
    0.25951975391835100498E-07
    0.36687104334491037403E-07
    0.35483721575377148507E-07
    0.38678886412023716706E-06
    0.41015271917793506626E-06
    0.76684309024797253694E-06
    0.66681759743020602525E-06
    0.32791540275296907579E-06
    0.21990689120521251184E-06
    0.10275296969477403728E-06
    0.10833730521283908447E-06
    0.51741997681908787711E-07
    0.58352937694323093999E-07
    0.13532256639856628515E-06
    0.17526776381970389779E-06
    0.21712919462377197712E-06
    0.20180417417855101908E-06
    0.73330665157524957942E-08
    0.88736316759399635970E-08
    0.13310467596638265103E-07
    0.14526320014017670606E-07
    0.90144297244462991306E-08
    0.75771850694574610571E-08
    0.50710259664780717991E-08
    0.55753237213701475114E-08
    0.43106444633173544216E-08
    0.53888211284249015755E-08
    0.52121721520595069132E-08
    0.64275034159986336432E-08
    0.61140425279806221815E-08
    0.62532615153507239600E-08
    0.44959364538183303436E-07
    0.62165429974499542953E-07
    0.12719957185659553204E-06
    0.13640158958410933861E-06
    0.68978912242907195364E-07
    0.58330044026787788523E-07
    0.26044634824354508713E-07
    0.22191736002856128607E-07
    0.10079165510229876909E-07
    0.99186837437368881245E-08
    0.20309338523882574158E-07
    0.20811144142284170747E-07
    0.35498337526562170398E-07
    0.36726142179099795984E-07
    0.21858299208568346076E-07
    0.29690904383057011989E-07
    0.56204355081353771320E-07
    0.67452760667725791519E-07
    0.37136560992431568016E-07
    0.36264723490572639453E-07
    0.17474564023118297828E-07
    0.14590112502534717718E-07
    0.84220418437477919166E-08
    0.97445749065510329442E-08
    0.12982411711371116811E-07
    0.15423771862241797178E-07
    0.19206304783255546254E-07
    0.20539334072959656137E-07
    0.22008423356512886682E-06
    0.32797601753983538589E-06
    0.66672137126178762985E-06
    0.76697780057134115639E-06
    0.41014543573331820563E-06
    0.38667389199178885341E-06
    0.17537166521871149659E-06
    0.13537369243790901875E-06
    0.58250621889406430439E-07
    0.51949477705791699525E-07
    0.10836804277428488878E-06
    0.10273427048318345835E-06
    0.20182379054403790691E-06
    0.21717404334093060922E-06
    0.43805156907445060500E-06
    0.55448373583549892159E-06
    0.10884181091134225531E-05
    0.10885350887779644524E-05
    0.55445369728272954821E-06
    0.43791519298805855543E-06
    0.19990672739670463198E-06
    0.18026535973015016790E-06
    0.80578366070553132394E-07
    0.80729414215335151814E-07
    0.18024949525142466785E-06
    0.19983221377652408908E-06
    0.31504165231076914012E-06
    0.31505565756488758158E-06
    0.31681365029117380674E-05
    0.36069863063446606986E-05
    0.66317624687618430184E-05
    0.61560825214971852962E-05
    0.31984643307579055453E-05
    0.23422005463058249162E-05
    0.11291514340703989563E-05
    0.11174731347130732572E-05
    0.54024136525354390792E-06
    0.57713213162497577715E-06
    0.12614789816226278733E-05
    0.15087087106734927251E-05
    0.20496118356473691567E-05
    0.19714163130010067777E-05
    0.23423388917156142466E-05
    0.31984969865249010559E-05
    0.61559665617363428389E-05
    0.66318813743923502854E-05
    0.36069613017542028556E-05
    0.31680080992822240092E-05
    0.15087944788858562170E-05
    0.12615035190115248033E-05
    0.57699144802042952686E-06
    0.54040049023261846034E-06
    0.11174625647000831455E-05
    0.11290803027228643029E-05
    0.19714070869694867664E-05
    0.20496314599495486193E-05
    0.18392142101481141601E-04
    0.22735351086829515309E-04
    0.41147990488632882648E-04
    0.41148112585250936235E-04
    0.22735326660415600499E-04
    0.18392017592444732656E-04
    0.92502484910383093970E-05
    0.85107093431413132655E-05
    0.42136355543272585865E-05
    0.42137841621591644127E-05
    0.85106892720085606878E-05
    0.92501638582629443783E-05
    0.13966461826183472670E-04
    0.13966477240476309123E-04
    0.15492857379755471874E-06
    0.14104218720372012245E-06
    0.24682373103660608137E-06
    0.19190411260797876106E-06
    0.97529668884870663933E-07
    0.65912972624498790718E-07
    0.45109888288569502866E-07
    0.40954869234066364598E-07
    0.27082922756774350550E-07
    0.26291249400588701530E-07
    0.51655497840566477299E-07
    0.71958877537254198131E-07
    0.73789570107595262983E-07
    0.66151256409299829725E-07
    0.48170104268932171237E-06
    0.39668687666901678140E-06
    0.64716077101090483155E-06
    0.47340347058626165678E-06
    0.24325123721407645842E-06
    0.15450394281477162590E-06
    0.10911260317277134335E-06
    0.10820827813146110276E-06
    0.74112883497209897526E-07
    0.77101352272027241304E-07
    0.15361954170711297536E-06
    0.23255489801108033657E-06
    0.20628303052295988658E-06
    0.17828851440682060702E-06
    0.18166288081296193335E-05
    0.17315469194138464388E-05
    0.30086647650739062415E-05
    0.24461912921549766859E-05
    0.12313411659598207881E-05
    0.77328810255570317315E-06
    0.38007796783042266740E-06
    0.43873235501125090515E-06
    0.22599769789527668402E-06
    0.27238353481457434304E-06
    0.61987642045895167309E-06
    0.86390472072414590599E-06
    0.92048572861018497968E-06
    0.82432517429077289848E-06
    0.59145108066253122253E-05
    0.50914079849175986539E-05
    0.81657702640189908441E-05
    0.62434348483444014854E-05
    0.32299975425328677608E-05
    0.19105589837872044096E-05
    0.99640522783050512146E-06
    0.12570969423596039451E-05
    0.70751266294089349736E-06
    0.90655197280160813997E-06
    0.19986045391573192875E-05
    0.29720940547967011067E-05
    0.27261443839804759957E-05
    0.23573878752595112370E-05
    0.10601256964104216175E-05
    0.79564852191391179943E-06
    0.11975799953590758374E-05
    0.82856980597995914583E-06
    0.43589041735919887779E-06
    0.26205367123949922383E-06
    0.19530347167698999767E-06
    0.21065943319736059871E-06
    0.15564452181496396017E-06
    0.17173438838129958295E-06
    0.33523028622967536260E-06
    0.53974325288088099798E-06
    0.41584667975274968829E-06
    0.34757532136302229399E-06
    0.16447000049617757542E-05
    0.11308272456047917753E-05
    0.15606516787639872837E-05
    0.10243385720732040092E-05
    0.55451601116688613770E-06
    0.31681497654297081766E-06
    0.25103016674075314111E-06
    0.29394158592748787147E-06
    0.23690413316250990926E-06
    0.27592868186553547169E-06
    0.52269787001978456341E-06
    0.88803538007291738653E-06
    0.59609475707478775206E-06
    0.48252574295540036343E-06
    0.13353574483530190333E-04
    0.10448988099721278581E-04
    0.15399847897914700637E-04
    0.11122945106673274077E-04
    0.59266685673370381692E-05
    0.33152851066702480832E-05
    0.18401841220104483382E-05
    0.25318449945931585406E-05
    0.15622752401195796932E-05
    0.21201093582274826598E-05
    0.45130741825663785147E-05
    0.71182293998262199830E-05
    0.56453591646506694020E-05
    0.47216606934893593837E-05
    0.21001609615547824972E-04
    0.15015926054395001480E-04
    0.20240429436770614326E-04
    0.13847973788688902497E-04
    0.76151655469679923352E-05
    0.40390067985478559200E-05
    0.23920986873375772926E-05
    0.35847605287949229866E-05
    0.24298053231851888768E-05
    0.34834875271750600539E-05
    0.71508419916074240187E-05
    0.11912891271864724184E-04
    0.81948326231759602414E-05
    0.66351929123184718220E-05
    0.16021874447978777089E-04
    0.16284153615923572394E-04
    0.27767423216678506254E-04
    0.23922139770334709412E-04
    0.12726580694809589751E-04
    0.86604601133501218837E-05
    0.44350171531179075822E-05
    0.48361402563373584806E-05
    0.25550563517834199876E-05
    0.29199444806829882667E-05
    0.62029244647094139756E-05
    0.80129692359314640029E-05
    0.92595455094243201446E-05
    0.85590815645619101876E-05
    0.55083811503231292623E-04
    0.50073454711304938441E-04
    0.78541512703064254343E-04
    0.63261141895170597380E-04
    0.34601734983426872202E-04
    0.22047881136996707512E-04
    0.12027155743909570120E-04
    0.14407584110614417460E-04
    0.83584569506740836466E-05
    0.10194795534231884898E-04
    0.20961408521811710463E-04
    0.29133412951052070183E-04
    0.28602157166503639206E-04
    0.25457486079932076538E-04
    0.10292518692423490139E-03
    0.11308378848218559091E-03
    0.19034250173125411964E-03
    0.17479056716348999952E-03
    0.98362610414452007930E-04
    0.72913313061178988412E-04
    0.38951778554920545494E-04
    0.39826248889741425467E-04
    0.21534067005920378226E-04
    0.23157965018506519749E-04
    0.45715375054953855420E-04
    0.54077894511076657661E-04
    0.68973850940939936279E-04
    0.66022190150618516595E-04
    0.38592626724489589515E-03
    0.37246818997974307690E-03
    0.57224153343974812867E-03
    0.48627468176466102879E-03
    0.28146753001534550315E-03
    0.19338690063811200316E-03
    0.11038290234336279141E-03
    0.12520784775305867980E-03
    0.74655486754973386936E-04
    0.86433081906695175467E-04
    0.16580769968356219406E-03
    0.21428904913590321262E-03
    0.22709738198174600900E-03
    0.20816780515754080617E-03
    0.12824347350481860486E-03
    0.10533876168661711293E-03
    0.15135193044895907215E-03
    0.11484961260994334834E-03
    0.64775782698886364536E-04
    0.38894004116468197370E-04
    0.22639194426785219785E-04
    0.29672471672377414827E-04
    0.18932377487603574884E-04
    0.24527164527261471606E-04
    0.48655405004591103634E-04
    0.72138505319122353987E-04
    0.60670418607477911716E-04
    0.52146431730387502194E-04
    0.20479335934254594247E-03
    0.15317773611267686338E-03
    0.20076735717575454635E-03
    0.14404096775222111570E-03
    0.83987160336682022046E-04
    0.47683580296785806854E-04
    0.29686036320184459712E-04
    0.42491989695129875890E-04
    0.29851812812645321047E-04
    0.40932869134779785241E-04
    0.78220412741317096373E-04
    0.12293493470639770275E-03
    0.89130818208636798162E-04
    0.74089885590673956002E-04
    0.93099788648609333071E-03
    0.80476685227938340571E-03
    0.11226082105318942010E-02
    0.89834555510192757796E-03
    0.53840437317293269020E-03
    0.34759897926792783030E-03
    0.21244811080837217184E-03
    0.26490153347398585600E-03
    0.17460633076402012464E-03
    0.21584610451234003238E-03
    0.39889660956394661128E-03
    0.55458397511529979821E-03
    0.49575773224933873673E-03
    0.43797020340853815099E-03
    0.14981126741643818832E-02
    0.11789883441184760733E-02
    0.14946236459574110868E-02
    0.11318418451116147704E-02
    0.70371162624775643671E-03
    0.42883921651738093374E-03
    0.28118940968829825430E-03
    0.38390012124184767772E-03
    0.27957086585191098403E-03
    0.36645162414171618013E-03
    0.65029751093350035389E-03
    0.95996394414908799674E-03
    0.73611157067296744544E-03
    0.62882363000534425949E-03
    0.66102080085460347895E-07
    0.97545797109173848513E-07
    0.19186989042747265504E-06
    0.24702273528063770477E-06
    0.14109928600036969373E-06
    0.15487490724852949441E-06
    0.72130980751587520549E-07
    0.51710609339243786023E-07
    0.26225386194290199478E-07
    0.27328154243400986633E-07
    0.41025726081743263551E-07
    0.44930892047599174406E-07
    0.66207989923117211375E-07
    0.73878589128848032102E-07
    0.77346581083786630172E-06
    0.12314022109568115389E-05
    0.24460951655748582892E-05
    0.30087994012699584466E-05
    0.17315403133035584794E-05
    0.18165149416574246038E-05
    0.86401063946426284219E-06
    0.61992909720680391442E-06
    0.27228313437131201996E-06
    0.22620663065119222281E-06
    0.43876401554333775316E-06
    0.38005985394248193952E-06
    0.82434559333606328106E-06
    0.92053151007659557122E-06
    0.15469311814800164216E-06
    0.24326746041413482093E-06
    0.47336935289247450616E-06
    0.64735989884094304023E-06
    0.39674414734694204769E-06
    0.48164761624797525739E-06
    0.23272735114525065846E-06
    0.15367491369344925755E-06
    0.77035797964066398250E-07
    0.74358348097657646169E-07
    0.10827928493798754120E-06
    0.10893369981972731280E-06
    0.17834539390697852382E-06
    0.20637222124102928434E-06
    0.19107368232599383563E-05
    0.32300587043612268523E-05
    0.62433387340346352967E-05
    0.81659042658613263552E-05
    0.50914011266248809063E-05
    0.59143961791460050582E-05
    0.29721999470982355117E-05
    0.19986573500183527691E-05
    0.90645184125914679377E-06
    0.70772182072947851021E-06
    0.12571287635103634440E-05
    0.99638723978447456843E-06
    0.23574084098889949430E-05
    0.27261902345059211165E-05
    0.86605959143459264912E-05
    0.12726608145780703968E-04
    0.23922010872376274363E-04
    0.27767524486694737055E-04
    0.16284121209428170749E-04
    0.16021740095683683198E-04
    0.80130543348006707394E-05
    0.62029484465306798213E-05
    0.29198049363523221814E-05
    0.25552162974312531081E-05
    0.48361290854892196586E-05
    0.44349453732324493877E-05
    0.85590698209883334286E-05
    0.92595623354617588390E-05
    0.72913364214008492066E-04
    0.98362528112451384755E-04
    0.17479021213324949578E-03
    0.19034240615281464246E-03
    0.11308367455735828249E-03
    0.10292502774568589746E-03
    0.54077966491026822275E-04
    0.45715373781313157304E-04
    0.23157808214075138552E-04
    0.21534205997995707615E-04
    0.39826201462439471575E-04
    0.38951664094281411121E-04
    0.66022121859812319777E-04
    0.68973816784172271356E-04
    0.22048012501316184688E-04
    0.34601749881532353683E-04
    0.63260980999371580467E-04
    0.78541555881195924483E-04
    0.50073391059930097804E-04
    0.55083633456874547970E-04
    0.29133481028797002135E-04
    0.20961423559292201145E-04
    0.10194652964188352217E-04
    0.83586151942268394034E-05
    0.14407569517592602235E-04
    0.12027082256291864279E-04
    0.25457465331659523904E-04
    0.28602161686321735795E-04
    0.19338671510744502883E-03
    0.28146695398377383169E-03
    0.48627323727105876885E-03
    0.57223986601200016976E-03
    0.37246724475569755819E-03
    0.38592527011341076684E-03
    0.21428877263912488580E-03
    0.16580745163549706037E-03
    0.86432829884880178002E-04
    0.74655553514036426962E-04
    0.12520764859184509003E-03
    0.11038268143564052795E-03
    0.20816740623980350272E-03
    0.22709695626185177615E-03
    0.26224286482581472968E-06
    0.43590668710063925656E-06
    0.82853576867191050726E-06
    0.11977792325530918046E-05
    0.79570588526129073635E-06
    0.10600723942098585978E-05
    0.53991580338850886876E-06
    0.33528572199576835525E-06
    0.17166888782684422191E-06
    0.15589002304188724072E-06
    0.21073047239600558458E-06
    0.19512458842517637656E-06
    0.34763224696297925534E-06
    0.41593593006239695719E-06
    0.33154631963220814890E-05
    0.59267301417463591720E-05
    0.11122849637080898426E-04
    0.15399981986821355593E-04
    0.10448981502464688476E-04
    0.13353459443279168164E-04
    0.71183354068763987310E-05
    0.45131272504503373459E-05
    0.21200093831794022942E-05
    0.15624845432282180076E-05
    0.25318770327349729942E-05
    0.18401662907025889298E-05
    0.47216815702513789403E-05
    0.56454053558799107733E-05
    0.31700418785337885288E-06
    0.55453231857219899337E-06
    0.10243046222539154020E-05
    0.15608510789917696459E-05
    0.11308847118924552631E-05
    0.16446468508529086112E-05
    0.88820801233692627952E-06
    0.52275334504681334377E-06
    0.27586319768012720926E-06
    0.23714964124394032461E-06
    0.29401263937125841971E-06
    0.25085129680055740333E-06
    0.48258269814233887457E-06
    0.59618404943748294098E-06
    0.40391855337022692415E-05
    0.76152284763867500710E-05
    0.13847881475116221222E-04
    0.20240568256819532181E-04
    0.15015921708271995049E-04
    0.21001496333066712045E-04
    0.11912998227197166124E-04
    0.71508957649507875963E-05
    0.34833878423231694527E-05
    0.24300148434812601700E-05
    0.35847929866961587368E-05
    0.23920811457084181636E-05
    0.66352146865039046976E-05
    0.81948798819227825304E-05
    0.38894133190672552133E-04
    0.64775786012043662420E-04
    0.11484942343262149653E-03
    0.15135190645509876100E-03
    0.10533865240209418061E-03
    0.12824320950536989235E-03
    0.72138538536996104581E-04
    0.48655405588162807778E-04
    0.24527017603254084026E-04
    0.18932534065654680878E-04
    0.29672453787793891212E-04
    0.22639120145567829211E-04
    0.52146400438650247994E-04
    0.60670406516586974064E-04
    0.34759859700311763813E-03
    0.53840328616282077685E-03
    0.89834319968607942702E-03
    0.11226048079600089297E-02
    0.80476443552012660344E-03
    0.93099438270811908560E-03
    0.55458247185965320845E-03
    0.39889572514854312272E-03
    0.21584559962867919309E-03
    0.17460624752264140955E-03
    0.26490109514856052938E-03
    0.21244776849259634885E-03
    0.43796928683986107497E-03