# vtk DataFile Version 3.0
LAPLACIEN  2D
ASCII
DATASET UNSTRUCTURED_GRID
 POINTS        1857  float
   3.1250000000000000E-002  0.93750000000000000        0.0000000000000000     
   6.2500000000000000E-002  0.93750000000000000        0.0000000000000000     
   6.2500000000000000E-002  0.96875000000000000        0.0000000000000000     
   1.8749999999999999E-002  0.95625000000000004        0.0000000000000000     
   4.0625000000000001E-002  0.95937499999999998        0.0000000000000000     
   4.3749999999999997E-002  0.98124999999999996        0.0000000000000000     
   2.1874999999999999E-002  0.97812500000000002        0.0000000000000000     
   9.3750000000000000E-002  0.93750000000000000        0.0000000000000000     
  0.12500000000000000       0.93750000000000000        0.0000000000000000     
  0.12500000000000000       0.96875000000000000        0.0000000000000000     
   8.1250000000000003E-002  0.95625000000000004        0.0000000000000000     
  0.10312499999999999       0.95937499999999998        0.0000000000000000     
  0.10625000000000000       0.98124999999999996        0.0000000000000000     
   8.4375000000000006E-002  0.97812500000000002        0.0000000000000000     
   3.1250000000000000E-002  0.87500000000000000        0.0000000000000000     
   6.2500000000000000E-002  0.87500000000000000        0.0000000000000000     
   6.2500000000000000E-002  0.90625000000000000        0.0000000000000000     
   1.8749999999999999E-002  0.89375000000000004        0.0000000000000000     
   4.0625000000000001E-002  0.89687499999999998        0.0000000000000000     
   4.3749999999999997E-002  0.91874999999999996        0.0000000000000000     
   2.1874999999999999E-002  0.91562500000000002        0.0000000000000000     
   9.3750000000000000E-002  0.87500000000000000        0.0000000000000000     
  0.12500000000000000       0.87500000000000000        0.0000000000000000     
  0.12500000000000000       0.90625000000000000        0.0000000000000000     
   8.1250000000000003E-002  0.89375000000000004        0.0000000000000000     
  0.10312499999999999       0.89687499999999998        0.0000000000000000     
  0.10625000000000000       0.91874999999999996        0.0000000000000000     
   8.4375000000000006E-002  0.91562500000000002        0.0000000000000000     
  0.15625000000000000       0.93750000000000000        0.0000000000000000     
  0.18750000000000000       0.93750000000000000        0.0000000000000000     
  0.18750000000000000       0.96875000000000000        0.0000000000000000     
  0.14374999999999999       0.95625000000000004        0.0000000000000000     
  0.16562499999999999       0.95937499999999998        0.0000000000000000     
  0.16875000000000001       0.98124999999999996        0.0000000000000000     
  0.14687500000000001       0.97812500000000002        0.0000000000000000     
  0.21875000000000000       0.93750000000000000        0.0000000000000000     
  0.25000000000000000       0.93750000000000000        0.0000000000000000     
  0.25000000000000000       0.96875000000000000        0.0000000000000000     
  0.20624999999999999       0.95625000000000004        0.0000000000000000     
  0.22812499999999999       0.95937499999999998        0.0000000000000000     
  0.23125000000000001       0.98124999999999996        0.0000000000000000     
  0.20937500000000001       0.97812500000000002        0.0000000000000000     
  0.15625000000000000       0.87500000000000000        0.0000000000000000     
  0.18750000000000000       0.87500000000000000        0.0000000000000000     
  0.18750000000000000       0.90625000000000000        0.0000000000000000     
  0.14374999999999999       0.89375000000000004        0.0000000000000000     
  0.16562499999999999       0.89687499999999998        0.0000000000000000     
  0.16875000000000001       0.91874999999999996        0.0000000000000000     
  0.14687500000000001       0.91562500000000002        0.0000000000000000     
  0.21875000000000000       0.87500000000000000        0.0000000000000000     
  0.25000000000000000       0.87500000000000000        0.0000000000000000     
  0.25000000000000000       0.90625000000000000        0.0000000000000000     
  0.20624999999999999       0.89375000000000004        0.0000000000000000     
  0.22812499999999999       0.89687499999999998        0.0000000000000000     
  0.23125000000000001       0.91874999999999996        0.0000000000000000     
  0.20937500000000001       0.91562500000000002        0.0000000000000000     
   3.1250000000000000E-002  0.81250000000000000        0.0000000000000000     
   6.2500000000000000E-002  0.81250000000000000        0.0000000000000000     
   6.2500000000000000E-002  0.84375000000000000        0.0000000000000000     
   1.8749999999999999E-002  0.83125000000000004        0.0000000000000000     
   4.0625000000000001E-002  0.83437499999999998        0.0000000000000000     
   4.3749999999999997E-002  0.85624999999999996        0.0000000000000000     
   2.1874999999999999E-002  0.85312500000000002        0.0000000000000000     
   9.3750000000000000E-002  0.81250000000000000        0.0000000000000000     
  0.12500000000000000       0.81250000000000000        0.0000000000000000     
  0.12500000000000000       0.84375000000000000        0.0000000000000000     
   8.1250000000000003E-002  0.83125000000000004        0.0000000000000000     
  0.10312499999999999       0.83437499999999998        0.0000000000000000     
  0.10625000000000000       0.85624999999999996        0.0000000000000000     
   8.4375000000000006E-002  0.85312500000000002        0.0000000000000000     
   3.1250000000000000E-002  0.75000000000000000        0.0000000000000000     
   6.2500000000000000E-002  0.75000000000000000        0.0000000000000000     
   6.2500000000000000E-002  0.78125000000000000        0.0000000000000000     
   1.8749999999999999E-002  0.76875000000000004        0.0000000000000000     
   4.0625000000000001E-002  0.77187499999999998        0.0000000000000000     
   4.3749999999999997E-002  0.79374999999999996        0.0000000000000000     
   2.1874999999999999E-002  0.79062500000000002        0.0000000000000000     
   9.3750000000000000E-002  0.75000000000000000        0.0000000000000000     
  0.12500000000000000       0.75000000000000000        0.0000000000000000     
  0.12500000000000000       0.78125000000000000        0.0000000000000000     
   8.1250000000000003E-002  0.76875000000000004        0.0000000000000000     
  0.10312499999999999       0.77187499999999998        0.0000000000000000     
  0.10625000000000000       0.79374999999999996        0.0000000000000000     
   8.4375000000000006E-002  0.79062500000000002        0.0000000000000000     
  0.15625000000000000       0.81250000000000000        0.0000000000000000     
  0.18750000000000000       0.81250000000000000        0.0000000000000000     
  0.18750000000000000       0.84375000000000000        0.0000000000000000     
  0.14374999999999999       0.83125000000000004        0.0000000000000000     
  0.16562499999999999       0.83437499999999998        0.0000000000000000     
  0.16875000000000001       0.85624999999999996        0.0000000000000000     
  0.14687500000000001       0.85312500000000002        0.0000000000000000     
  0.21875000000000000       0.81250000000000000        0.0000000000000000     
  0.25000000000000000       0.81250000000000000        0.0000000000000000     
  0.25000000000000000       0.84375000000000000        0.0000000000000000     
  0.20624999999999999       0.83125000000000004        0.0000000000000000     
  0.22812499999999999       0.83437499999999998        0.0000000000000000     
  0.23125000000000001       0.85624999999999996        0.0000000000000000     
  0.20937500000000001       0.85312500000000002        0.0000000000000000     
  0.15625000000000000       0.75000000000000000        0.0000000000000000     
  0.18750000000000000       0.75000000000000000        0.0000000000000000     
  0.18750000000000000       0.78125000000000000        0.0000000000000000     
  0.14374999999999999       0.76875000000000004        0.0000000000000000     
  0.16562499999999999       0.77187499999999998        0.0000000000000000     
  0.16875000000000001       0.79374999999999996        0.0000000000000000     
  0.14687500000000001       0.79062500000000002        0.0000000000000000     
  0.21875000000000000       0.75000000000000000        0.0000000000000000     
  0.25000000000000000       0.75000000000000000        0.0000000000000000     
  0.25000000000000000       0.78125000000000000        0.0000000000000000     
  0.20624999999999999       0.76875000000000004        0.0000000000000000     
  0.22812499999999999       0.77187499999999998        0.0000000000000000     
  0.23125000000000001       0.79374999999999996        0.0000000000000000     
  0.20937500000000001       0.79062500000000002        0.0000000000000000     
  0.28125000000000000       0.93750000000000000        0.0000000000000000     
  0.31250000000000000       0.93750000000000000        0.0000000000000000     
  0.31250000000000000       0.96875000000000000        0.0000000000000000     
  0.26874999999999999       0.95625000000000004        0.0000000000000000     
  0.29062500000000002       0.95937499999999998        0.0000000000000000     
  0.29375000000000001       0.98124999999999996        0.0000000000000000     
  0.27187499999999998       0.97812500000000002        0.0000000000000000     
  0.34375000000000000       0.93750000000000000        0.0000000000000000     
  0.37500000000000000       0.93750000000000000        0.0000000000000000     
  0.37500000000000000       0.96875000000000000        0.0000000000000000     
  0.33124999999999999       0.95625000000000004        0.0000000000000000     
  0.35312500000000002       0.95937499999999998        0.0000000000000000     
  0.35625000000000001       0.98124999999999996        0.0000000000000000     
[...]
 CELL_DATA        3584
 SCALARS VEGF float
 LOOKUP_TABLE default
    0.28033538761652603274E-08
    0.34671662030013836590E-08
    0.20990543444702416109E-08
    0.22253401734010492713E-08
    0.35334815505216967748E-08
    0.26593175247949029571E-08
    0.40637744308627076111E-08
    0.30891781698635662698E-08
    0.31390763660261449704E-08
    0.33434769906018828246E-08
    0.30707259964687512518E-08
    0.37931189401796053760E-08
    0.32276614970740604042E-08
    0.32582170154950477278E-08
    0.12748710525518487641E-08
    0.18880341239944989086E-08
    0.88857312471142287159E-09
    0.13321335528579256887E-08
    0.25676730259482862837E-08
    0.19901852382610132587E-08
    0.32622275017179336153E-08
    0.22601774582015499118E-08
    0.32870961893771736725E-08
    0.26499009973853958503E-08
    0.28274116252097981921E-08
    0.18788385220715850472E-08
    0.19852046600933810465E-08
    0.19588663863906421950E-08
    0.21762257283125286421E-08
    0.25568236990224919334E-08
    0.12673076259953812846E-08
    0.10803439588315675506E-08
    0.19189679077623342070E-08
    0.11723482423281536080E-08
    0.19983505550339800854E-08
    0.28342201826131865319E-08
    0.25283966063845917253E-08
    0.35219774780958234207E-08
    0.23113959931769755579E-08
    0.30446733886642708124E-08
    0.19877580300558469771E-08
    0.20453716103231292930E-08
    0.39203382406905156375E-09
    0.65924617326014944561E-09
   -0.92956272251411751512E-10
    0.34355272098422210419E-10
    0.62426607125285098641E-09
    0.22817949951728254885E-09
    0.73259828631623640994E-09
    0.10770663763568780906E-08
    0.91099668086498830238E-09
    0.10950116418699300674E-08
    0.10800536216876835798E-08
    0.68345621694706190606E-09
    0.16279891341265030150E-09
    0.17494308488547400990E-09
    0.76350404270588459932E-09
    0.15622866087608009148E-08
    0.70382782920396262312E-09
    0.11992654180260972538E-08
    0.23921452251978148499E-08
    0.18637368757542041065E-08
    0.30802774740228726956E-08
    0.19785656178144681078E-08
    0.28735247146128309103E-08
    0.21174129501703968703E-08
    0.23356654843620589850E-08
    0.11835649597583585859E-08
    0.16574917869502968990E-08
    0.16833469377571841411E-08
    0.80270730614576912340E-09
    0.16303096788437480692E-08
    0.97097085988022477807E-09
    0.13908447064155619345E-08
    0.24409451554020246247E-08
    0.18850599522888630251E-08
    0.30713748042153055703E-08
    0.19495825096816864419E-08
    0.28083510838861768003E-08
    0.20265217566600483079E-08
    0.22750225634101932101E-08
    0.11034237964713282318E-08
    0.16493937869485889919E-08
    0.16776875258285806787E-08
    0.52673172665511502617E-10
    0.59828069385588246825E-09
    0.55843586259062054299E-09
    0.64918764492949677301E-09
    0.68807522843892067228E-09
    0.24357436146211142442E-09
    0.56684452793333266184E-09
    0.77010855331349176061E-09
    0.38583717651768385892E-09
    0.38139660114281334519E-09
    0.51016476484582506598E-09
   -0.84186306948410415361E-10
   -0.11578990138363838970E-09
   -0.46742479126317847821E-10
    0.39876724401082686936E-08
    0.49066753792577658242E-08
    0.11084290785865005586E-07
    0.89937422498879557997E-08
    0.37817155388160059632E-08
    0.19195807810470512821E-08
    0.11143659767268562732E-08
    0.13475404600020171454E-08
    0.51560392461959283817E-09
    0.52541041014533792353E-09
    0.12944922714613706034E-08
    0.10996300820290415770E-08
    0.15634202751787651551E-08
    0.14437592470919333930E-08
    0.20591531838919186637E-08
    0.23942564531562553485E-08
    0.11455633516126826493E-08
    0.91061216398388063310E-09
    0.16166067492930762097E-08
    0.69680052799249944429E-09
    0.13519649174101303304E-08
    0.23760518134641388074E-08
    0.20302878716484231536E-08
    0.31355629801154383429E-08
    0.20490063534941302432E-08
    0.28755550544114257767E-08
    0.17315526956730950551E-08
    0.17405628994540563796E-08
    0.41851715978886600815E-09
    0.73825547482753221915E-09
    0.53426896195645645222E-09
    0.70199814222945672831E-09
    0.58897402292788126181E-09
   -0.73767379791963255885E-10
    0.17188329366906280216E-10
    0.54767108809972017904E-09
    0.24561110711410640361E-09
    0.60645328725597843448E-09
    0.79749497488125991604E-09
    0.53313722808083049594E-09
   -0.35733341367821341804E-10
   -0.76643750189582467735E-10
    0.20818977883176311586E-08
    0.24450772127748093952E-08
    0.13387644619263686630E-08
    0.11800174569413095183E-08
    0.16884326607131380385E-08
    0.74199464499270566386E-09
    0.12803363428922864127E-08
    0.23215338734469129171E-08
    0.19465192960252083520E-08
    0.30757287822027576011E-08
    0.20234412501838249468E-08
    0.28687493579721953557E-08
    0.17291410469758645012E-08
    0.17363599049962266912E-08
    0.20961065129951921259E-08
    0.38341710663045609102E-08
    0.88806236350587724724E-08
    0.11230338675644539451E-07
    0.49015746755190321586E-08
    0.38677546458365309791E-08
    0.12104904052769355910E-08
    0.13389768007970225127E-08
    0.39794906376947643002E-09
    0.74233425311777666703E-09
    0.13788100389394372954E-08
    0.10829773490944193125E-08
    0.14584453516820960022E-08
    0.16069686036586395491E-08
    0.47749251406820956493E-08
    0.73927080620815229234E-08
    0.18374332335512741068E-07
    0.18505449371848804004E-07
    0.73680175683180660424E-08
    0.46369566665679651192E-08
    0.13953777464900932662E-08
    0.15422683910905759649E-08
    0.74369862947226603168E-10
    0.24738437361648973650E-09
    0.15296595096245662514E-08
    0.13103043024339655517E-08
    0.26308069996541899193E-08
    0.26467011215040926957E-08
    0.88580761843573026918E-07
    0.10854494971645159242E-06
    0.25432837353199556215E-06
    0.22674189103531882020E-06
    0.91708299398602417992E-07
    0.57164122787552302569E-07
    0.20391000505570315880E-07
    0.20356411396103753545E-07
    0.66319544890660138062E-08
    0.75130864759966036094E-08
    0.24058551765676527572E-07
    0.30892913819312781072E-07
    0.47378856797013630783E-07
    0.44613388831263458723E-07
    0.57303799544459517394E-07
    0.91735382910867457708E-07
    0.22661266800098184923E-06
    0.25446204682554433074E-06
    0.10852455389832001843E-06
    0.88449361243203394679E-07
    0.30987547978258034838E-07
    0.24078329925141598742E-07
    0.73487666964521952941E-08
    0.68114917416944773286E-08
    0.20347928284359083269E-07
    0.20308437032131029462E-07
    0.44601329271224713416E-07
    0.47399301118059941668E-07
    0.11022023383805736176E-05
    0.15089699625947360971E-05
    0.34218787811705905412E-05
    0.34220104741982960250E-05
    0.15089471380148056759E-05
    0.11020691721028786980E-05
    0.42187578939735039585E-06
    0.37344443206075377974E-06
    0.13560355205617195997E-06
    0.13577441291076221828E-06
    0.37342880321129742608E-06
    0.42178371845099458929E-06
    0.74836757953090577530E-06
    0.74838418062898591853E-06
    0.17729708255322183294E-08
    0.24460910252778728120E-08
    0.28303685064780028829E-08
    0.25915339188429341058E-08
    0.28746704383787812715E-08
    0.20905738584294362851E-08
    0.31705664178067938007E-08
    0.20477368270841274869E-08
    0.28474511075144772599E-08
    0.20679928176558153906E-08
    0.24394160100020307789E-08
    0.14071784160930118173E-08
    0.19462539720344189517E-08
    0.19153802832168492195E-08
    0.64178767823226461258E-08
    0.57663120212177811063E-08
    0.95097929763165541188E-08
    0.64957464837801215821E-08
    0.43468361250699433526E-08
    0.27295633874358470525E-08
    0.35160759457484199395E-08
    0.24481251907894175221E-08
    0.30584943194687606888E-08
    0.23288077892117843754E-08
    0.32538916302182977637E-08
    0.30269913306997799478E-08
    0.31859670403615163482E-08
    0.28538886602821473598E-08
    0.39671091062456766043E-07
    0.37682351957709285317E-07
    0.82407187425926713873E-07
    0.59737485708995931751E-07
    0.23485282695699614369E-07
    0.11639680285306321936E-07
    0.47139022537934613737E-08
    0.58789865394738644052E-08
    0.22431335526782401988E-08
    0.28528389989768213566E-08
    0.88728708445153810679E-08
    0.13609886579554323046E-07
    0.14779392762777417382E-07
    0.12487834794525463275E-07
    0.21927843542379692381E-06
    0.17748947435633064832E-06
    0.35132116406964499355E-06
    0.23225564546141399294E-06
    0.93444271055532475810E-07
    0.43067000373573847134E-07
    0.17524916291824561622E-07
    0.24589567304819911817E-07
    0.10477597522945858171E-07
    0.15083023383355181519E-07
    0.46516528669096425654E-07
    0.81728864907917542964E-07
    0.72039296789071702726E-07
    0.57683488255080892784E-07
    0.18678267220154132578E-07
    0.13166195646302987955E-07
    0.22269163562087792897E-07
    0.13183790612052532941E-07
    0.69931626688081133622E-08
    0.37690011429925494362E-08
    0.41499086546264416150E-08
    0.33090004088543871273E-08
    0.35937497063873545113E-08
    0.30575833594245074711E-08
    0.54076409422298078246E-08
    0.76902400992499491605E-08
    0.59961812328426506023E-08
    0.48548831310252553948E-08
    0.34618484636399505467E-07
    0.20855894779350118755E-07
    0.32310083663432381324E-07
    0.17515463041883711647E-07
    0.88883842308762517510E-08
    0.43828430442541179583E-08
    0.46310309181450200202E-08
    0.41606209017115044417E-08
    0.42695429437837635794E-08
    0.40971438071342464092E-08
    0.82665825540606467825E-08
    0.14549983323413644256E-07
    0.89915406777746259499E-08
    0.68035392964925991519E-08
    0.71352792608082833548E-06
    0.50094202515242053285E-06
    0.88341733106992506947E-06
    0.53737918588344617237E-06
    0.22389623370422052559E-06
    0.95851158260076112829E-07
    0.41786380785956468404E-07
    0.66469189218845118475E-07
    0.32224919075376326778E-07
    0.50816870696446029583E-07
    0.15016104503102519710E-06
    0.28731222007656452847E-06
    0.20692566358725014389E-06
    0.15774670558925157717E-06
    0.13758352831342238108E-05
    0.84600495358184185955E-06
    0.13132027235339456521E-05
    0.73941548939879320419E-06
    0.32016755371394549453E-06
    0.12772974952467145998E-06
    0.60639834521976164820E-07
    0.10913938851916700747E-06
    0.60600085778295181973E-07
    0.10369434928571303818E-06
    0.29189856558393191000E-06
    0.60105472776654877012E-06
    0.35473444512745461411E-06
    0.25786595638205168323E-06
    0.90720337806038375664E-06
    0.93748868034975900378E-06
    0.19887062886880783800E-05
    0.15879830575811926438E-05
    0.66645246822723601164E-06
    0.37908212630704834468E-06
    0.14800803450586679206E-06
    0.16757237103037397524E-06
    0.65674959786710404989E-07
    0.80311313499594928962E-07
    0.23656984677978655555E-06
    0.34202995729387136005E-06
    0.41811919723064531131E-06
    0.37153813606968631882E-06
    0.53198744373091018094E-05
    0.46853528712869534764E-05
    0.88900642756599249794E-05
    0.64449972106573076900E-05
    0.28152198437746686381E-05
    0.14675460518186524771E-05
    0.62523107044218032635E-06
    0.80898641370800948722E-06
    0.36304066597706418171E-06
    0.48626428155718232860E-06
    0.13583573238334070182E-05
    0.21635014978675632735E-05
    0.21194453791082232381E-05
    0.17850644388705364470E-05
    0.12644480381591303222E-04
    0.14579434312850657898E-04
    0.29915390962445984817E-04
    0.26426059927904036709E-04
    0.12079294872313421402E-04
    0.78591678665365388050E-05
    0.32862643471449791515E-05
    0.33813365492535199758E-05
    0.13960466168261224207E-05
    0.15509528360201082101E-05
    0.40757517528542110290E-05
    0.51710195889848897086E-05
    0.72554350830049122830E-05
    0.68110182487392435672E-05
    0.81556923046900933901E-04
    0.78516949548363838872E-04
    0.14307265394779600828E-03
    0.11337450276772437381E-03
    0.54055393061477737752E-04
    0.31855860277855007777E-04
    0.14608826082968380750E-04
    0.17363815337297154969E-04
    0.82169717101955861886E-05
    0.10112396555338004522E-04
    0.25292708059312036574E-04
    0.35998548623247258278E-04
    0.39418627536356660773E-04
    0.34871913577823802465E-04
    0.17987760220096823570E-04
    0.13684713430481495287E-04
    0.23024343063336563436E-04
    0.15311768038412378815E-04
    0.69690967790735522890E-05
    0.33524574410300338550E-05
    0.15615147621455869382E-05
    0.23004129965324133113E-05
    0.11821618743847569482E-05
    0.17268342317768182642E-05
    0.45766658890370390391E-05
    0.79363885732047828098E-05
    0.62832570334362439248E-05
    0.50333147847848929164E-05
    0.35473625286709560285E-04
    0.23532707871326294331E-04
    0.34728315977848348245E-04
    0.21308612257200745425E-04
    0.10124562736633011380E-04
    0.45155135332783766079E-05
    0.23085927715825820030E-05
    0.38633778242323480828E-05
    0.22838504831872755018E-05
    0.36233867899491653686E-05
    0.91064726496349479313E-05
    0.17071162283496712619E-04
    0.10969254291767433502E-04
    0.83691140852345326283E-05
    0.28805173577905427177E-03
    0.23752278274975929004E-03
    0.38155419892048786932E-03
    0.27674297172686375661E-03
    0.13802495842095069477E-03
    0.74657408302380946427E-04
    0.37608997027937454292E-04
    0.51119775903398954279E-04
    0.27832390751093581601E-04
    0.37536908476428465216E-04
    0.88816840768689923869E-04
    0.13901969764190964655E-03
    0.12113068801558982710E-03
    0.10174558514398592728E-03
    0.58000825388576833248E-03
    0.41547618546085025425E-03
    0.58311048538959794636E-03
    0.38937645689473480808E-03
    0.20359828209502473266E-03
    0.10160203307636401571E-03
    0.56437529804648816820E-04
    0.87483741521489938211E-04
    0.55009945595337872404E-04
    0.80795874793715413763E-04
    0.18067670539913965617E-03
    0.30749817391093953916E-03
    0.21543001919522154590E-03
    0.17217179990309654800E-03
    0.22875578197258050497E-08
    0.28790250205235059403E-08
    0.25396229194882756168E-08
    0.30396649977481357862E-08
    0.25046762502878205163E-08
    0.17130369242337354109E-08
    0.15852785156388767012E-08
    0.24867552164424504641E-08
    0.19890210896244020157E-08
    0.31155543191140431091E-08
    0.21220194195504719843E-08
    0.29681783740950663537E-08
    0.19672252846063100311E-08
    0.20337061995252293780E-08
    0.11816372385431876356E-07
    0.23537991422476941704E-07
    0.59624570275298196423E-07
    0.82553529895678457713E-07
    0.37677775191753825988E-07
    0.39552039405313687541E-07
    0.13722067611546690698E-07
    0.89182822302301160077E-08
    0.27265210955311511047E-08
    0.24706567479713408139E-08
    0.59107226172797749105E-08
    0.46827694124593109552E-08
    0.12502960436881746956E-07
    0.14823485251057407927E-07
    0.29265569134901508291E-08
    0.43512075271391576662E-08
    0.64438489878925362042E-08
    0.97191072340762383385E-08
    0.58249353758894438644E-08
    0.63580158518493225797E-08
    0.32052090283833052292E-08
    0.33013062851894532517E-08
    0.22499318843003445051E-08
    0.33266595201636524107E-08
    0.25224417975141369528E-08
    0.33137057155259315302E-08
    0.29057649518303257330E-08
    0.32734589669290884065E-08
    0.43243707930604866570E-07
    0.93497013617455388040E-07
    0.23214277282234326995E-06
    0.35146756588822841250E-06
    0.17748497090373132217E-06
    0.21915950394037971900E-06
    0.81841197402912395226E-07
    0.46562037221652288568E-07
    0.14956819654710097874E-07
    0.10705195091714692525E-07
    0.24621350482169384185E-07
    0.17493802531715649120E-07
    0.57698660152463571571E-07
    0.72083448506925073402E-07
    0.37922203539098188568E-06
    0.66647990981988115771E-06
    0.15878542127424137905E-05
    0.19888403958333250064E-05
    0.93746894172585780305E-06
    0.90707296985608567033E-06
    0.34212601720530216288E-06
    0.23659064903789543487E-06
    0.80148237260586321449E-07
    0.65855377874997284219E-07
    0.16756443371861503637E-06
    0.14792578316644189893E-06
    0.37152660976635620887E-06
    0.41814028579304368818E-06
    0.78593011562887821561E-05
    0.12079317701537245321E-04
    0.26425926871590517777E-04
    0.29915520828141337485E-04
    0.14579411911388189506E-04
    0.12644348383203392165E-04
    0.51711132518367535946E-05
    0.40757685357584569187E-05
    0.15507833067922233994E-05
    0.13962184760894837058E-05
    0.33813216188959537508E-05
    0.32861726974074253228E-05
    0.68110022628207381220E-05
    0.72554524307128229614E-05
    0.14676861074334020316E-05
    0.28152475714331595631E-05
    0.64448690090902289513E-05
    0.88901987608764061185E-05
    0.46853335099814462342E-05
    0.53197443612189990506E-05
    0.21635979095623700121E-05
    0.13583783716265553383E-05
    0.48610139190610381584E-06
    0.36322121725511728442E-06
    0.80897861545339475393E-06
    0.62514890451259406244E-06
    0.17850531360891924703E-05
    0.21194667252529647924E-05
    0.31855993157664085763E-04
    0.54055408143829317700E-04
    0.11337434369519754876E-03
    0.14307271733532251853E-03
    0.78516904208922409097E-04
    0.81556771452229642532E-04
    0.35998638379425435799E-04
    0.25292722687468293947E-04
    0.10112226924624091522E-04
    0.82171436894538098071E-05
    0.17363799759934140293E-04
    0.14608734575404491425E-04
    0.34871893639169816682E-04
    0.39418638815502694275E-04
    0.39659929204494300278E-08
    0.69975341193243357964E-08
    0.13131890469102255974E-07
    0.22478479238732730595E-07
    0.13224822224948492419E-07
    0.18618410331369585733E-07
    0.78684648264440549247E-08
    0.54550615716102197072E-08
    0.29787142241534431442E-08
    0.38619186783130016929E-08
    0.33833159888367726937E-08
    0.39475366403911866594E-08
    0.49067572207605608752E-08
    0.60836732363599903722E-08
    0.96027870985002540431E-07
    0.22394898635026158817E-06
    0.53726633812943287796E-06
    0.88356378128366975535E-06
    0.50093756187553733085E-06
    0.71340906880387025369E-06
    0.28742459391324424270E-06
    0.15020657248427319288E-06
    0.50690676391106534391E-07
    0.32452523511139771809E-07
    0.66500976045928548388E-07
    0.41755269429367732952E-07
    0.15776189008097135172E-06
    0.20696983438129467355E-06
    0.45798308298480391349E-08
    0.88927514148739059539E-08
    0.17463558785145601458E-07
    0.32519396157292571132E-07
    0.20914518753333921971E-07
    0.34558626562391851668E-07
    0.14728207196786933844E-07
    0.83139996637004600596E-08
    0.40182732532058611171E-08
    0.45377112728354536577E-08
    0.42349374797360257817E-08
    0.44286555224080362794E-08
    0.68554127536942308591E-08
    0.90790311830738198146E-08
    0.12790644470151406656E-06
    0.32022028620988949345E-06
    0.73930260181426661050E-06
    0.13133491158438988826E-05
    0.84600048464751368861E-06
    0.13757164439092338067E-05
    0.60116711956087367296E-06
    0.29194409818405406054E-06
    0.10356815849446960006E-06
    0.60827688464147029719E-07
    0.10917117188694164925E-06
    0.60608718121382686427E-07
    0.25788113491085890596E-06
    0.35477861302037612109E-06
    0.33525976711101968816E-05
    0.69691251777482918458E-05
    0.15311641490741429556E-04
    0.23024480803501225272E-04
    0.13684696009918547786E-04
    0.17987632388342977738E-04
    0.79364859620368635696E-05
    0.45766874935143268761E-05
    0.17266715239313307860E-05
    0.11823425410232181697E-05
    0.23004054371645629984E-05
    0.15614326913956663420E-05
    0.50333040689094428498E-05
    0.62832791938948605139E-05
    0.74657553920372406956E-04
    0.13802501385802614362E-03
    0.27674292328889419246E-03
    0.38155446211101599722E-03
    0.23752278983435782286E-03
    0.28805154056548565441E-03
    0.13901976765427230738E-03
    0.88816858115344554160E-04
    0.37536740323017002440E-04
    0.27832565754304299335E-04
    0.51119769507306497337E-04
    0.37608911444019666869E-04
    0.10174558625365275619E-03