# vtk DataFile Version 3.0
LAPLACIEN  2D
ASCII
DATASET UNSTRUCTURED_GRID
 POINTS        1857  float
   3.1250000000000000E-002  0.93750000000000000        0.0000000000000000     
   6.2500000000000000E-002  0.93750000000000000        0.0000000000000000     
   6.2500000000000000E-002  0.96875000000000000        0.0000000000000000     
   1.8749999999999999E-002  0.95625000000000004        0.0000000000000000     
   4.0625000000000001E-002  0.95937499999999998        0.0000000000000000     
   4.3749999999999997E-002  0.98124999999999996        0.0000000000000000     
   2.1874999999999999E-002  0.97812500000000002        0.0000000000000000     
   9.3750000000000000E-002  0.93750000000000000        0.0000000000000000     
  0.12500000000000000       0.93750000000000000        0.0000000000000000     
  0.12500000000000000       0.96875000000000000        0.0000000000000000     
   8.1250000000000003E-002  0.95625000000000004        0.0000000000000000     
  0.10312499999999999       0.95937499999999998        0.0000000000000000     
  0.10625000000000000       0.98124999999999996        0.0000000000000000     
   8.4375000000000006E-002  0.97812500000000002        0.0000000000000000     
   3.1250000000000000E-002  0.87500000000000000        0.0000000000000000     
   6.2500000000000000E-002  0.87500000000000000        0.0000000000000000     
   6.2500000000000000E-002  0.90625000000000000        0.0000000000000000     
   1.8749999999999999E-002  0.89375000000000004        0.0000000000000000     
   4.0625000000000001E-002  0.89687499999999998        0.0000000000000000     
   4.3749999999999997E-002  0.91874999999999996        0.0000000000000000     
   2.1874999999999999E-002  0.91562500000000002        0.0000000000000000     
   9.3750000000000000E-002  0.87500000000000000        0.0000000000000000     
  0.12500000000000000       0.87500000000000000        0.0000000000000000     
  0.12500000000000000       0.90625000000000000        0.0000000000000000     
   8.1250000000000003E-002  0.89375000000000004        0.0000000000000000     
  0.10312499999999999       0.89687499999999998        0.0000000000000000     
  0.10625000000000000       0.91874999999999996        0.0000000000000000     
   8.4375000000000006E-002  0.91562500000000002        0.0000000000000000     
  0.15625000000000000       0.93750000000000000        0.0000000000000000     
  0.18750000000000000       0.93750000000000000        0.0000000000000000     
  0.18750000000000000       0.96875000000000000        0.0000000000000000     
  0.14374999999999999       0.95625000000000004        0.0000000000000000     
  0.16562499999999999       0.95937499999999998        0.0000000000000000     
  0.16875000000000001       0.98124999999999996        0.0000000000000000     
  0.14687500000000001       0.97812500000000002        0.0000000000000000     
  0.21875000000000000       0.93750000000000000        0.0000000000000000     
  0.25000000000000000       0.93750000000000000        0.0000000000000000     
  0.25000000000000000       0.96875000000000000        0.0000000000000000     
  0.20624999999999999       0.95625000000000004        0.0000000000000000     
  0.22812499999999999       0.95937499999999998        0.0000000000000000     
  0.23125000000000001       0.98124999999999996        0.0000000000000000     
  0.20937500000000001       0.97812500000000002        0.0000000000000000     
  0.15625000000000000       0.87500000000000000        0.0000000000000000     
  0.18750000000000000       0.87500000000000000        0.0000000000000000     
  0.18750000000000000       0.90625000000000000        0.0000000000000000     
  0.14374999999999999       0.89375000000000004        0.0000000000000000     
  0.16562499999999999       0.89687499999999998        0.0000000000000000     
  0.16875000000000001       0.91874999999999996        0.0000000000000000     
  0.14687500000000001       0.91562500000000002        0.0000000000000000     
  0.21875000000000000       0.87500000000000000        0.0000000000000000     
  0.25000000000000000       0.87500000000000000        0.0000000000000000     
  0.25000000000000000       0.90625000000000000        0.0000000000000000     
  0.20624999999999999       0.89375000000000004        0.0000000000000000     
  0.22812499999999999       0.89687499999999998        0.0000000000000000     
  0.23125000000000001       0.91874999999999996        0.0000000000000000     
  0.20937500000000001       0.91562500000000002        0.0000000000000000     
   3.1250000000000000E-002  0.81250000000000000        0.0000000000000000     
   6.2500000000000000E-002  0.81250000000000000        0.0000000000000000     
   6.2500000000000000E-002  0.84375000000000000        0.0000000000000000     
   1.8749999999999999E-002  0.83125000000000004        0.0000000000000000     
   4.0625000000000001E-002  0.83437499999999998        0.0000000000000000     
   4.3749999999999997E-002  0.85624999999999996        0.0000000000000000     
   2.1874999999999999E-002  0.85312500000000002        0.0000000000000000     
   9.3750000000000000E-002  0.81250000000000000        0.0000000000000000     
  0.12500000000000000       0.81250000000000000        0.0000000000000000     
  0.12500000000000000       0.84375000000000000        0.0000000000000000     
   8.1250000000000003E-002  0.83125000000000004        0.0000000000000000     
  0.10312499999999999       0.83437499999999998        0.0000000000000000     
  0.10625000000000000       0.85624999999999996        0.0000000000000000     
   8.4375000000000006E-002  0.85312500000000002        0.0000000000000000     
   3.1250000000000000E-002  0.75000000000000000        0.0000000000000000     
   6.2500000000000000E-002  0.75000000000000000        0.0000000000000000     
   6.2500000000000000E-002  0.78125000000000000        0.0000000000000000     
   1.8749999999999999E-002  0.76875000000000004        0.0000000000000000     
   4.0625000000000001E-002  0.77187499999999998        0.0000000000000000     
   4.3749999999999997E-002  0.79374999999999996        0.0000000000000000     
   2.1874999999999999E-002  0.79062500000000002        0.0000000000000000     
   9.3750000000000000E-002  0.75000000000000000        0.0000000000000000     
  0.12500000000000000       0.75000000000000000        0.0000000000000000     
  0.12500000000000000       0.78125000000000000        0.0000000000000000     
   8.1250000000000003E-002  0.76875000000000004        0.0000000000000000     
  0.10312499999999999       0.77187499999999998        0.0000000000000000     
  0.10625000000000000       0.79374999999999996        0.0000000000000000     
   8.4375000000000006E-002  0.79062500000000002        0.0000000000000000     
  0.15625000000000000       0.81250000000000000        0.0000000000000000     
  0.18750000000000000       0.81250000000000000        0.0000000000000000     
  0.18750000000000000       0.84375000000000000        0.0000000000000000     
  0.14374999999999999       0.83125000000000004        0.0000000000000000     
  0.16562499999999999       0.83437499999999998        0.0000000000000000     
  0.16875000000000001       0.85624999999999996        0.0000000000000000     
  0.14687500000000001       0.85312500000000002        0.0000000000000000     
  0.21875000000000000       0.81250000000000000        0.0000000000000000     
  0.25000000000000000       0.81250000000000000        0.0000000000000000     
  0.25000000000000000       0.84375000000000000        0.0000000000000000     
  0.20624999999999999       0.83125000000000004        0.0000000000000000     
  0.22812499999999999       0.83437499999999998        0.0000000000000000     
  0.23125000000000001       0.85624999999999996        0.0000000000000000     
  0.20937500000000001       0.85312500000000002        0.0000000000000000     
  0.15625000000000000       0.75000000000000000        0.0000000000000000     
  0.18750000000000000       0.75000000000000000        0.0000000000000000     
  0.18750000000000000       0.78125000000000000        0.0000000000000000     
  0.14374999999999999       0.76875000000000004        0.0000000000000000     
  0.16562499999999999       0.77187499999999998        0.0000000000000000     
  0.16875000000000001       0.79374999999999996        0.0000000000000000     
  0.14687500000000001       0.79062500000000002        0.0000000000000000     
  0.21875000000000000       0.75000000000000000        0.0000000000000000     
  0.25000000000000000       0.75000000000000000        0.0000000000000000     
  0.25000000000000000       0.78125000000000000        0.0000000000000000     
  0.20624999999999999       0.76875000000000004        0.0000000000000000     
  0.22812499999999999       0.77187499999999998        0.0000000000000000     
  0.23125000000000001       0.79374999999999996        0.0000000000000000     
  0.20937500000000001       0.79062500000000002        0.0000000000000000     
  0.28125000000000000       0.93750000000000000        0.0000000000000000     
  0.31250000000000000       0.93750000000000000        0.0000000000000000     
  0.31250000000000000       0.96875000000000000        0.0000000000000000     
  0.26874999999999999       0.95625000000000004        0.0000000000000000     
  0.29062500000000002       0.95937499999999998        0.0000000000000000     
  0.29375000000000001       0.98124999999999996        0.0000000000000000     
  0.27187499999999998       0.97812500000000002        0.0000000000000000     
  0.34375000000000000       0.93750000000000000        0.0000000000000000     
  0.37500000000000000       0.93750000000000000        0.0000000000000000     
  0.37500000000000000       0.96875000000000000        0.0000000000000000     
  0.33124999999999999       0.95625000000000004        0.0000000000000000     
  0.35312500000000002       0.95937499999999998        0.0000000000000000     
  0.35625000000000001       0.98124999999999996        0.0000000000000000     
[...]
 CELL_DATA        3584
 SCALARS VEGF float
 LOOKUP_TABLE default
    0.25795593570236715751E-08
    0.32330960458841286817E-08
    0.18691713800150803441E-08
    0.19940148520967027979E-08
    0.32991689661249839690E-08
    0.24373048098134864603E-08
    0.38324008505184548698E-08
    0.28654439911598484312E-08
    0.29195268503893241124E-08
    0.31220112678109456367E-08
    0.28463445163447523483E-08
    0.35629569494455765368E-08
    0.29978464650206028078E-08
    0.30283287268324764051E-08
    0.10493206103646866436E-08
    0.16612484675073863862E-08
    0.67333131085844786818E-09
    0.11169816201196404911E-08
    0.23473526157931643935E-08
    0.17837489169074286479E-08
    0.30435988034176953742E-08
    0.20422271488833820770E-08
    0.30619364162324421723E-08
    0.24279474758364976625E-08
    0.25965760711137104041E-08
    0.16499034318697084302E-08
    0.17604304126585384875E-08
    0.17369560548087145565E-08
    0.19674177139216266289E-08
    0.23363199295877033542E-08
    0.10531926915639602575E-08
    0.86358012339090578763E-09
    0.16926593345137591028E-08
    0.94862480841759738849E-09
    0.17689495466113380279E-08
    0.26037418292918895864E-08
    0.23069718151838585368E-08
    0.32942608937607623761E-08
    0.20923983991256314618E-08
    0.28267464843157023692E-08
    0.17657121140569269458E-08
    0.18205095034523743564E-08
    0.17773626749265204365E-09
    0.43910615021432617718E-09
   -0.32121447807684185578E-09
   -0.19503175582368136322E-09
    0.40493916159735455390E-09
    0.16157136337735181688E-10
    0.51734577762081741648E-09
    0.85517087395529345255E-09
    0.68833424735364444196E-09
    0.87114553924120274014E-09
    0.85821679178711443878E-09
    0.46857950463369404288E-09
   -0.53607637739742848406E-10
   -0.41487252408275690728E-10
    0.55007573767558801995E-09
    0.13443571860705581078E-08
    0.48180408954695498986E-09
    0.97961699697660093867E-09
    0.21792329056496243776E-08
    0.16652704367803674609E-08
    0.28734534524774254788E-08
    0.17748469574462473940E-08
    0.26646763466108570027E-08
    0.19118577384699341557E-08
    0.21209061066141116389E-08
    0.97080545867046879750E-09
    0.14461730708021666787E-08
    0.14743477348680586153E-08
    0.50817827134915468165E-09
    0.13303894375500624393E-08
    0.53561529100465734675E-09
    0.10171009895014280510E-08
    0.21758207991935215323E-08
    0.16598580138911654668E-08
    0.28551632743741569085E-08
    0.17398975697294812203E-08
    0.26028684052435182048E-08
    0.18257063315047377809E-08
    0.20522811863306867699E-08
    0.87353392316161910074E-09
    0.14118668834472743382E-08
    0.14465875638431778580E-08
   -0.33506897042111839886E-09
    0.14976257415234635885E-09
   -0.29586121494949848790E-09
   -0.13880090712148526522E-09
    0.27325027041109886479E-09
   -0.84004906786081907000E-10
    0.32519373880244260314E-09
    0.52707378599289986618E-09
    0.17076387952643077983E-09
    0.16478388293308173239E-09
    0.26354319848770527533E-09
   -0.33845040225631263160E-09
   -0.41271748746403550323E-09
   -0.33899555900175728801E-09
    0.85943749530408926319E-09
    0.14974160863740427622E-08
    0.32756877263517524859E-08
    0.26340609385567798840E-08
    0.12263815538802622079E-08
    0.40553482638703494085E-09
    0.46081635822477593603E-09
    0.65782629006381296025E-09
    0.15226746384293568625E-09
    0.12862734248846806840E-09
    0.42776351053834961692E-09
   -0.73436104102114057581E-10
    0.55775453453173191824E-10
    0.74180150175564527767E-10
    0.18577503663395273846E-08
    0.21805428868237818032E-08
    0.92636590776319252938E-09
    0.68643711744764100866E-09
    0.13984843350581833568E-08
    0.48454771605805913156E-09
    0.11381880304450203658E-08
    0.21610001233884184069E-08
    0.18246125204948788197E-08
    0.29234740897685902868E-08
    0.18435668599261686977E-08
    0.26688032036008155514E-08
    0.15217490574818847778E-08
    0.15284808218748168649E-08
    0.88091342123369001533E-10
    0.32199816474794112967E-09
   -0.25318723098747652868E-09
   -0.15406191903283334323E-09
    0.14059983021968394852E-09
   -0.45988607854033823401E-09
   -0.23798909148337441217E-09
    0.30036117609949006989E-09
    0.29620126279930874923E-10
    0.38952389685435457124E-09
    0.55385453949143970717E-09
    0.29123215588502733879E-09
   -0.32863101436573497142E-09
   -0.37426515457702767404E-09
    0.18535501453253661165E-08
    0.21788919813586663250E-08
    0.96524516314616067604E-09
    0.74223446824235068417E-09
    0.13879494667490015901E-08
    0.44817882078205306430E-09
    0.10488912168322174837E-08
    0.20980248261531258045E-08
    0.17450717791908493622E-08
    0.28665475723981851126E-08
    0.18116762505185133459E-08
    0.26523413269712536755E-08
    0.14968901077130259954E-08
    0.14976902125167796592E-08
    0.57899374485349992136E-09
    0.12771305563138847977E-08
    0.25212370984363934930E-08
    0.34196807028342592391E-08
    0.14920731111193405946E-08
    0.74066531008412993596E-09
    0.35962998985714581499E-10
    0.47107384168009755565E-09
    0.12659917678561545591E-11
    0.37667565499108916214E-09
    0.68812064426722858859E-09
    0.42889583542360461336E-09
    0.87861424699979197026E-10
    0.98236619275822400786E-10
    0.10847806560279195349E-08
    0.22633387737093039597E-08
    0.58736109730806049855E-08
    0.60035580479362688437E-08
    0.22394150851512235379E-08
    0.94901460634025422839E-09
    0.16179712720293695207E-10
    0.33273316259379889286E-09
   -0.43669328892062788282E-09
   -0.26495497372475931103E-09
    0.32014415622307483076E-09
   -0.68614500809472843052E-10
    0.21912825505891762366E-09
    0.23499648946850155255E-09
    0.34172774498189831292E-07
    0.42988222878116031080E-07
    0.10670844546681047618E-06
    0.94094796590172016855E-07
    0.35850269274412486167E-07
    0.21108966252477879698E-07
    0.68115827313526956176E-08
    0.70162446767601357059E-08
    0.16792846024318192188E-08
    0.20839347076109960478E-08
    0.83872658218609736962E-08
    0.10767007075420981912E-07
    0.17150513770694740928E-07
    0.16030377713404413754E-07
    0.21246205688426070526E-07
    0.35876303215060722732E-07
    0.93966496528281077095E-07
    0.10684066145453544030E-06
    0.42968204808493084008E-07
    0.34043099404259878669E-07
    0.10860816106102398960E-07
    0.84065327355207687252E-08
    0.19203583150986332385E-08
    0.18570681107179893969E-08
    0.70074008936025461558E-08
    0.67290060525509088853E-08
    0.16017975449387758480E-07
    0.17170531331410257935E-07
    0.51724255717756034290E-06
    0.72728088611686664059E-06
    0.17406844432154421058E-05
    0.17408149359972231022E-05
    0.72725871488773389517E-06
    0.51711132378525892483E-06
    0.18546568010724276714E-06
    0.16249728299145219022E-06
    0.54445223990528716561E-07
    0.54614864580208204534E-07
    0.16248179131333871090E-06
    0.18537415294675836960E-06
    0.34166210198740981330E-06
    0.34167864330747632204E-06
    0.78162430572031516687E-09
    0.15588993493073924327E-08
    0.10955712632905323355E-08
    0.13640003417207982103E-08
    0.22918510906847961493E-08
    0.17106556428992953239E-08
    0.28769864249903804130E-08
    0.17608080011770383336E-08
    0.26069745659022304114E-08
    0.18284298611520182227E-08
    0.20885601554224374584E-08
    0.94645624963041870181E-09
    0.14872092162912436125E-08
    0.15054029578284022673E-08
    0.22848844607192369424E-08
    0.26087955259623267744E-08
    0.33384947511185065743E-08
    0.26129556528223087140E-08
    0.27310155707313486980E-08
    0.18867003700206719703E-08
    0.29653532996441031828E-08
    0.18662976297501720642E-08
    0.26586876169319914444E-08
    0.18949673004433358140E-08
    0.23188644794785781134E-08
    0.14312170629654032873E-08
    0.18510404906413343885E-08
    0.17729303222052622480E-08
    0.14201312334771707874E-07
    0.13719917907217142642E-07
    0.31511765030457656117E-07
    0.22117869159096813311E-07
    0.83337658154996128796E-08
    0.37248689956176019460E-08
    0.16071015785331909874E-08
    0.21194031226963248502E-08
    0.66627912752433357512E-09
    0.83812775545912288466E-09
    0.29547877458322910104E-08
    0.42702422637514705289E-08
    0.46638751478219609990E-08
    0.38614573246168147819E-08
    0.90786080197600321458E-07
    0.72455116491716317250E-07
    0.15090664990539763326E-06
    0.95829012024503771001E-07
    0.36444012290309308716E-07
    0.15622088708959291827E-07
    0.61462439984789820455E-08
    0.89070922287944925216E-08
    0.34568403768074181168E-08
    0.51185609559509416880E-08
    0.17242983601403529309E-07
    0.31307639690467687211E-07
    0.27183545334749138951E-07
    0.21269048197391934815E-07
    0.66238657209304658573E-08
    0.51403255481770498531E-08
    0.79483451624593462111E-08
    0.49028305956944817945E-08
    0.35755896988703959133E-08
    0.21922249194436706848E-08
    0.31388150868253891380E-08
    0.21111740429359316548E-08
    0.28017617612865860059E-08
    0.20991800301971945977E-08
    0.29840643232440501031E-08
    0.29589279980147326364E-08
    0.27440441550607001352E-08
    0.23884394482813394467E-08
    0.12587512164090428601E-07
    0.78957810796940375308E-08
    0.11718884203190228890E-07
    0.64408275018983621427E-08
    0.42005592825254770366E-08
    0.23787518191104600212E-08
    0.32751244054115651985E-08
    0.23640105328054327519E-08
    0.29918672500359731347E-08
    0.24072014071768019587E-08
    0.39168108540439947187E-08
    0.53350254726302265340E-08
    0.37413038940404229015E-08
    0.30145926602253697927E-08
    0.32273470438307784623E-06
    0.22033923307670981508E-06
    0.40653380831353265763E-06
    0.23603236480734050930E-06
    0.92818562530878195690E-07
    0.37037897353367687250E-07
    0.15386467394833535476E-07
    0.25391592464728413976E-07
    0.11510108618041305510E-07
    0.18872888925630521136E-07
    0.60441026207342343099E-07
    0.12121782269660175872E-06
    0.84954351185662366305E-07
    0.63083405764754704422E-07
    0.65281166796364364792E-06
    0.38623938850149834992E-06
    0.62195568208030274554E-06
    0.33255946109209059823E-06
    0.13595673426798663204E-06
    0.50445179290658270807E-07
    0.22844284563419149072E-07
    0.42988245048079287009E-07
    0.22614046274052637635E-07
    0.40500521906730521772E-07
    0.12312633313752051438E-06
    0.26709818499480772442E-06
    0.15154819501115314171E-06
    0.10694741886578426381E-06
    0.41961885052778432901E-06
    0.43562713099617110584E-06
    0.97465240634164131775E-06
    0.76207674726137013190E-06
    0.30228968106202244888E-06
    0.16392874285245126034E-06
    0.59868945935215579319E-07
    0.68608447961498592373E-07
    0.24684664330664153955E-07
    0.30912495124745686843E-07
    0.99252154128204786418E-07
    0.14775500735990394276E-06
    0.18263445268136012328E-06
    0.16043520243303139176E-06
    0.28048998667247355446E-05
    0.24492970738682298065E-05
    0.48740572206728608292E-05
    0.34315137940517642471E-05
    0.14198676707013835010E-05
    0.70274513117407520601E-06
    0.28206290650951343157E-06
    0.37233175233190356268E-06
    0.15666602458191355627E-06
    0.21537843918970979945E-06
    0.64828965455262140005E-06
    0.10704105766533236980E-05
    0.10452047210959970381E-05
    0.86662556214964527774E-06
    0.70856310812476893326E-05
    0.82738859992642423304E-05
    0.17817572178403150380E-04
    0.15578181450346317502E-04
    0.67732141940676747957E-05
    0.42614885112670247249E-05
    0.16803621831780935189E-05
    0.17304528209574442737E-05
    0.66890658916933918436E-06
    0.74966675745266362250E-06
    0.21111024050200341689E-05
    0.27293711840560830521E-05
    0.39136140519733665752E-05
    0.36541935413076494212E-05
    0.52300026010295185875E-04
    0.50346644287029152637E-04
    0.95719498106850141881E-04
    0.74451320737078778306E-04
    0.33867419391839364835E-04
    0.19182370302219687718E-04
    0.83404505882720194747E-05
    0.10030537144622657302E-04
    0.44814294582779165001E-05
    0.56052664666912081572E-05
    0.14960084110237349101E-04
    0.21834459419719035451E-04
    0.24077880714844999673E-04
    0.21094684262156889669E-04
    0.10387962321098615295E-04
    0.77419946869926041831E-05
    0.13563281696501054615E-04
    0.86977410854504712062E-05
    0.37564712368152541805E-05
    0.17075662044465635827E-05
    0.75325095181987189004E-06
    0.11432063476991627672E-05
    0.55651268157829716912E-06
    0.83961695263750384119E-06
    0.23886927709800276286E-05
    0.43154685918401411765E-05
    0.33580549034013450432E-05
    0.26376631208148349067E-05
    0.21553072383194986806E-04
    0.13855682487698026153E-04
    0.21097501402248142351E-04
    0.12410931337701727522E-04
    0.56039556260530655723E-05
    0.23521122309564751091E-05
    0.11451511911934921165E-05
    0.19929197051390957499E-05
    0.11274245429733110329E-05
    0.18589939654205627990E-05
    0.49997384512501538177E-05
    0.98055579992869522951E-05
    0.61071816737511467642E-05
    0.45516853233800079823E-05
    0.20321186584946026167E-03
    0.16555006666870377319E-03
    0.27552531907187465020E-03
    0.19463537216230644765E-03
    0.92825550768135369818E-04
    0.47975526783786799027E-04
    0.23042970620036192035E-04
    0.32027667758525933911E-04
    0.16613595780936970056E-04
    0.22934583340362760386E-04
    0.57695958039297114053E-04
    0.93118696484688023266E-04
    0.80525864744265593224E-04
    0.66712454682367556473E-04
    0.43213412603218233701E-03
    0.30222465327395606075E-03
    0.43532379186579086769E-03
    0.28126952348294580013E-03
    0.14093244344289248475E-03
    0.66869155398668596400E-04
    0.35632570756304666104E-04
    0.57047354609965053769E-04
    0.34538822643322345646E-04
    0.52280861812270419794E-04
    0.12385996804770417977E-03
    0.21853710341481957986E-03
    0.14960271638070603978E-03
    0.11745398276441300941E-03
    0.19044540067500676033E-08
    0.22950924315829913075E-08
    0.13122724248846949579E-08
    0.13023821970376357353E-08
    0.16168278717146078006E-08
    0.72226491139659096286E-09
    0.11228188829271597819E-08
    0.21349874176471562690E-08
    0.17486543785230634589E-08
    0.28712445908034302697E-08
    0.18329211497633482476E-08
    0.26743426296734812284E-08
    0.15560132792333814341E-08
    0.15734190252894723005E-08
    0.38984528041031276629E-08
    0.83847111606208220946E-08
    0.22005198428162781302E-07
    0.31655986337713794202E-07
    0.13714995748157063293E-07
    0.14083256864016723806E-07
    0.43807652811970275660E-08
    0.29988678889845339670E-08
    0.71173120791466567649E-09
    0.89134061732318823691E-09
    0.21500703640582301325E-08
    0.15753756521171340895E-08
    0.38754872589183137170E-08
    0.47067738836505554460E-08
    0.20805074553784126102E-08
    0.27342672446477686486E-08
    0.25612335270905767222E-08
    0.35453178734555959561E-08
    0.26667498559265237571E-08
    0.22255735538009959264E-08
    0.16076650477590748341E-08
    0.23653431891424986331E-08
    0.18152616278305966462E-08
    0.29230047212783123796E-08
    0.19384346356521483306E-08
    0.27627248163625862855E-08
    0.18235612053652460965E-08
    0.19372779604325014801E-08
    0.15795679935150851698E-07
    0.36494978003975836824E-07
    0.95716367210741495641E-07
    0.15105091246484783558E-06
    0.72450246625563089830E-07
    0.90668111716528576617E-07
    0.31418275368916712117E-07
    0.17287136190276149401E-07
    0.49922474209948659287E-08
    0.36819548196948192136E-08
    0.89377892490214372452E-08
    0.61145292234880897598E-08
    0.21283111238821546671E-07
    0.27226486758606159700E-07
    0.16406617110498496240E-06
    0.30231601383940103434E-06
    0.76194877943402665183E-06
    0.97478504000602316141E-06
    0.43560767540711548487E-06
    0.41949002310896457850E-06
    0.14785003583991197932E-06
    0.99272280856497812912E-07
    0.30749974908811989149E-07
    0.24863177160813333528E-07
    0.68600046635579576410E-07
    0.59786614502829853508E-07
    0.16042323724700824682E-06
    0.18265500443102344013E-06
    0.42616202951873302551E-05
    0.67732371309402840937E-05
    0.15578052092139784411E-04
    0.17817703096359564536E-04
    0.82738647233321018529E-05
    0.70855009621309640664E-05
    0.27294640974339929706E-05
    0.21111189518832315624E-05
    0.74949829187498887508E-06
    0.66907709989726434842E-06
    0.17304380156513314127E-05
    0.16802711344982408018E-05
    0.36541777729713993404E-05
    0.39136314451433227722E-05
    0.70288263434907030184E-06
    0.14198941672075638016E-05
    0.34313861972701570215E-05
    0.48741902476424301752E-05
    0.24492779449912335622E-05
    0.28047714661442233062E-05
    0.10705059243416300460E-05
    0.64830998152434875502E-06
    0.21521606903012393113E-06
    0.15684463800463611207E-06
    0.37232344787031708727E-06
    0.28198062792349639724E-06
    0.86661375150372149767E-06
    0.10452254683950841395E-05
    0.19182503374723211445E-04
    0.33867443135597321516E-04
    0.74451190747990152771E-04
    0.95719615757987116405E-04
    0.50346621539485178303E-04
    0.52299895694601057443E-04
    0.21834553667071850293E-04
    0.14960101654750105691E-04
    0.56050985987402035841E-05
    0.44816004741768929059E-05
    0.10030523062855314334E-04
    0.83403601340980612459E-05
    0.21094669417446142569E-04
    0.24077898872730097124E-04
    0.23860283636748545247E-08
    0.35788390481308320949E-08
    0.48511061205158491604E-08
    0.81551677774600626338E-08
    0.51982813782437602208E-08
    0.65645549511146638916E-08
    0.31353778359136933184E-08
    0.30305476711280272408E-08
    0.20194779083096751695E-08
    0.30660793716691095554E-08
    0.21833115844268514235E-08
    0.29361829603312250793E-08
    0.24390696075093538556E-08
    0.28302820256243105305E-08
    0.37211491624416789475E-07
    0.92869531215062422845E-07
    0.23591972690065682596E-06
    0.40667808195585837688E-06
    0.22033437986501407159E-06
    0.32261677080874128341E-06
    0.12132848287088847980E-06
    0.60485187759842994109E-07
    0.18746579163978594389E-07
    0.11735223192911469661E-07
    0.25422293051606297940E-07
    0.15354756106088010456E-07
    0.63097474684737290079E-07
    0.84997301994683108363E-07
    0.25725524592589090076E-08
    0.42038063853916060260E-08
    0.63891016940782052225E-08
    0.11925701330864219083E-07
    0.79537328315068103893E-08
    0.12528200502661191377E-07
    0.55114742923944311129E-08
    0.39632905923720982041E-08
    0.23274971501031287409E-08
    0.32561796701741010435E-08
    0.24361446027986982329E-08
    0.30724897762373392941E-08
    0.30652192480940361348E-08
    0.38275378851157463356E-08
    0.50618760158423981198E-07
    0.13600768992969499131E-06
    0.33244680207517336215E-06
    0.62209993884387439326E-06
    0.38623453266672590433E-06
    0.65269373801652292320E-06
    0.26720884888635552397E-06
    0.12317049804699539008E-06
    0.40374215330959304586E-07
    0.22839161464590095778E-07
    0.43018940435949518043E-07
    0.22812566385202229807E-07
    0.10696148198462518948E-06
    0.15159114357904523547E-06
    0.17077037708825298640E-05
    0.37564980233838279800E-05
    0.86976143671712349950E-05
    0.13563416520361318231E-04
    0.77419765482768364165E-05
    0.10387835257596552793E-04
    0.43155644553593089870E-05
    0.23887133411669935015E-05
    0.83945466044327587882E-06
    0.55669134314324951579E-06
    0.11431981299363591447E-05
    0.75316870003803665929E-06
    0.26376515418582100129E-05
    0.33580760028574337312E-05
    0.47975667332371993261E-04
    0.92825595904708383625E-04
    0.19463529383760970297E-03
    0.27552552500681280626E-03
    0.16555007522178950309E-03
    0.20321172666407677390E-03
    0.93118792455609472928E-04
    0.57695982086547192575E-04
    0.22934417728257669222E-04
    0.16613768917850789408E-04
    0.32027659540639472795E-04
    0.23042883662605620390E-04
    0.66712453347041040228E-04