# vtk DataFile Version 3.0
LAPLACIEN  2D
ASCII
DATASET UNSTRUCTURED_GRID
 POINTS        1857  float
   3.1250000000000000E-002  0.93750000000000000        0.0000000000000000     
   6.2500000000000000E-002  0.93750000000000000        0.0000000000000000     
   6.2500000000000000E-002  0.96875000000000000        0.0000000000000000     
   1.8749999999999999E-002  0.95625000000000004        0.0000000000000000     
   4.0625000000000001E-002  0.95937499999999998        0.0000000000000000     
   4.3749999999999997E-002  0.98124999999999996        0.0000000000000000     
   2.1874999999999999E-002  0.97812500000000002        0.0000000000000000     
   9.3750000000000000E-002  0.93750000000000000        0.0000000000000000     
  0.12500000000000000       0.93750000000000000        0.0000000000000000     
  0.12500000000000000       0.96875000000000000        0.0000000000000000     
   8.1250000000000003E-002  0.95625000000000004        0.0000000000000000     
  0.10312499999999999       0.95937499999999998        0.0000000000000000     
  0.10625000000000000       0.98124999999999996        0.0000000000000000     
   8.4375000000000006E-002  0.97812500000000002        0.0000000000000000     
   3.1250000000000000E-002  0.87500000000000000        0.0000000000000000     
   6.2500000000000000E-002  0.87500000000000000        0.0000000000000000     
   6.2500000000000000E-002  0.90625000000000000        0.0000000000000000     
   1.8749999999999999E-002  0.89375000000000004        0.0000000000000000     
   4.0625000000000001E-002  0.89687499999999998        0.0000000000000000     
   4.3749999999999997E-002  0.91874999999999996        0.0000000000000000     
   2.1874999999999999E-002  0.91562500000000002        0.0000000000000000     
   9.3750000000000000E-002  0.87500000000000000        0.0000000000000000     
  0.12500000000000000       0.87500000000000000        0.0000000000000000     
  0.12500000000000000       0.90625000000000000        0.0000000000000000     
   8.1250000000000003E-002  0.89375000000000004        0.0000000000000000     
  0.10312499999999999       0.89687499999999998        0.0000000000000000     
  0.10625000000000000       0.91874999999999996        0.0000000000000000     
   8.4375000000000006E-002  0.91562500000000002        0.0000000000000000     
  0.15625000000000000       0.93750000000000000        0.0000000000000000     
  0.18750000000000000       0.93750000000000000        0.0000000000000000     
  0.18750000000000000       0.96875000000000000        0.0000000000000000     
  0.14374999999999999       0.95625000000000004        0.0000000000000000     
  0.16562499999999999       0.95937499999999998        0.0000000000000000     
  0.16875000000000001       0.98124999999999996        0.0000000000000000     
  0.14687500000000001       0.97812500000000002        0.0000000000000000     
  0.21875000000000000       0.93750000000000000        0.0000000000000000     
  0.25000000000000000       0.93750000000000000        0.0000000000000000     
  0.25000000000000000       0.96875000000000000        0.0000000000000000     
  0.20624999999999999       0.95625000000000004        0.0000000000000000     
  0.22812499999999999       0.95937499999999998        0.0000000000000000     
  0.23125000000000001       0.98124999999999996        0.0000000000000000     
  0.20937500000000001       0.97812500000000002        0.0000000000000000     
  0.15625000000000000       0.87500000000000000        0.0000000000000000     
  0.18750000000000000       0.87500000000000000        0.0000000000000000     
  0.18750000000000000       0.90625000000000000        0.0000000000000000     
  0.14374999999999999       0.89375000000000004        0.0000000000000000     
  0.16562499999999999       0.89687499999999998        0.0000000000000000     
  0.16875000000000001       0.91874999999999996        0.0000000000000000     
  0.14687500000000001       0.91562500000000002        0.0000000000000000     
  0.21875000000000000       0.87500000000000000        0.0000000000000000     
  0.25000000000000000       0.87500000000000000        0.0000000000000000     
  0.25000000000000000       0.90625000000000000        0.0000000000000000     
  0.20624999999999999       0.89375000000000004        0.0000000000000000     
  0.22812499999999999       0.89687499999999998        0.0000000000000000     
  0.23125000000000001       0.91874999999999996        0.0000000000000000     
  0.20937500000000001       0.91562500000000002        0.0000000000000000     
   3.1250000000000000E-002  0.81250000000000000        0.0000000000000000     
   6.2500000000000000E-002  0.81250000000000000        0.0000000000000000     
   6.2500000000000000E-002  0.84375000000000000        0.0000000000000000     
   1.8749999999999999E-002  0.83125000000000004        0.0000000000000000     
   4.0625000000000001E-002  0.83437499999999998        0.0000000000000000     
   4.3749999999999997E-002  0.85624999999999996        0.0000000000000000     
   2.1874999999999999E-002  0.85312500000000002        0.0000000000000000     
   9.3750000000000000E-002  0.81250000000000000        0.0000000000000000     
  0.12500000000000000       0.81250000000000000        0.0000000000000000     
  0.12500000000000000       0.84375000000000000        0.0000000000000000     
   8.1250000000000003E-002  0.83125000000000004        0.0000000000000000     
  0.10312499999999999       0.83437499999999998        0.0000000000000000     
  0.10625000000000000       0.85624999999999996        0.0000000000000000     
   8.4375000000000006E-002  0.85312500000000002        0.0000000000000000     
   3.1250000000000000E-002  0.75000000000000000        0.0000000000000000     
   6.2500000000000000E-002  0.75000000000000000        0.0000000000000000     
   6.2500000000000000E-002  0.78125000000000000        0.0000000000000000     
   1.8749999999999999E-002  0.76875000000000004        0.0000000000000000     
   4.0625000000000001E-002  0.77187499999999998        0.0000000000000000     
   4.3749999999999997E-002  0.79374999999999996        0.0000000000000000     
   2.1874999999999999E-002  0.79062500000000002        0.0000000000000000     
   9.3750000000000000E-002  0.75000000000000000        0.0000000000000000     
  0.12500000000000000       0.75000000000000000        0.0000000000000000     
  0.12500000000000000       0.78125000000000000        0.0000000000000000     
   8.1250000000000003E-002  0.76875000000000004        0.0000000000000000     
  0.10312499999999999       0.77187499999999998        0.0000000000000000     
  0.10625000000000000       0.79374999999999996        0.0000000000000000     
   8.4375000000000006E-002  0.79062500000000002        0.0000000000000000     
  0.15625000000000000       0.81250000000000000        0.0000000000000000     
  0.18750000000000000       0.81250000000000000        0.0000000000000000     
  0.18750000000000000       0.84375000000000000        0.0000000000000000     
  0.14374999999999999       0.83125000000000004        0.0000000000000000     
  0.16562499999999999       0.83437499999999998        0.0000000000000000     
  0.16875000000000001       0.85624999999999996        0.0000000000000000     
  0.14687500000000001       0.85312500000000002        0.0000000000000000     
  0.21875000000000000       0.81250000000000000        0.0000000000000000     
  0.25000000000000000       0.81250000000000000        0.0000000000000000     
  0.25000000000000000       0.84375000000000000        0.0000000000000000     
  0.20624999999999999       0.83125000000000004        0.0000000000000000     
  0.22812499999999999       0.83437499999999998        0.0000000000000000     
  0.23125000000000001       0.85624999999999996        0.0000000000000000     
  0.20937500000000001       0.85312500000000002        0.0000000000000000     
  0.15625000000000000       0.75000000000000000        0.0000000000000000     
  0.18750000000000000       0.75000000000000000        0.0000000000000000     
  0.18750000000000000       0.78125000000000000        0.0000000000000000     
  0.14374999999999999       0.76875000000000004        0.0000000000000000     
  0.16562499999999999       0.77187499999999998        0.0000000000000000     
  0.16875000000000001       0.79374999999999996        0.0000000000000000     
  0.14687500000000001       0.79062500000000002        0.0000000000000000     
  0.21875000000000000       0.75000000000000000        0.0000000000000000     
  0.25000000000000000       0.75000000000000000        0.0000000000000000     
  0.25000000000000000       0.78125000000000000        0.0000000000000000     
  0.20624999999999999       0.76875000000000004        0.0000000000000000     
  0.22812499999999999       0.77187499999999998        0.0000000000000000     
  0.23125000000000001       0.79374999999999996        0.0000000000000000     
  0.20937500000000001       0.79062500000000002        0.0000000000000000     
  0.28125000000000000       0.93750000000000000        0.0000000000000000     
  0.31250000000000000       0.93750000000000000        0.0000000000000000     
  0.31250000000000000       0.96875000000000000        0.0000000000000000     
  0.26874999999999999       0.95625000000000004        0.0000000000000000     
  0.29062500000000002       0.95937499999999998        0.0000000000000000     
  0.29375000000000001       0.98124999999999996        0.0000000000000000     
  0.27187499999999998       0.97812500000000002        0.0000000000000000     
  0.34375000000000000       0.93750000000000000        0.0000000000000000     
  0.37500000000000000       0.93750000000000000        0.0000000000000000     
  0.37500000000000000       0.96875000000000000        0.0000000000000000     
  0.33124999999999999       0.95625000000000004        0.0000000000000000     
  0.35312500000000002       0.95937499999999998        0.0000000000000000     
  0.35625000000000001       0.98124999999999996        0.0000000000000000     
[...]
 CELL_DATA        3584
 SCALARS VEGF float
 LOOKUP_TABLE default
    0.15671543567554246776E-08
    0.22062611165173969626E-08
    0.87551237374647617008E-09
    0.10006140795669679498E-08
    0.22751665001707055044E-08
    0.14286023506463094377E-08
    0.28286293737245679278E-08
    0.18375615827987250894E-08
    0.19070458788376315299E-08
    0.21117031445569851288E-08
    0.18193025153014203235E-08
    0.25561701995535933043E-08
    0.19460186656023132331E-08
    0.19767489926012399096E-08
    0.12577762005910660444E-09
    0.75122777840379333113E-09
   -0.17737810758884339381E-09
    0.26161973823347210372E-09
    0.14476489585077483694E-08
    0.89494226183874800361E-09
    0.21529743407117154620E-08
    0.11088441722164881827E-08
    0.20986760716488291480E-08
    0.14348021292025389785E-08
    0.16200546431155890068E-08
    0.67574171610769769383E-09
    0.80967868752493642996E-09
    0.79223337170860171411E-09
    0.10700365659255421681E-08
    0.14294144640384834627E-08
    0.19305820155070044824E-09
    0.91939309181119243750E-11
    0.78366610304672626885E-09
    0.30628094321161299819E-10
    0.79349390130459857298E-09
    0.16241574417360263624E-08
    0.13118318598090371057E-08
    0.23309015161394873185E-08
    0.11564144455355675911E-08
    0.19286402729017659608E-08
    0.81724420106199460380E-09
    0.86692855283932979186E-09
   -0.59378358819567502200E-09
   -0.30881331181040848795E-09
   -0.10068538221265717018E-08
   -0.87986540532262606683E-09
   -0.33773933250007184916E-09
   -0.74523855625796219032E-09
   -0.30848737335273740879E-09
    0.15963745434788721572E-10
   -0.21126820087251055522E-09
   -0.26074142553015663492E-10
    0.20173864501279155252E-10
   -0.35986675257837327226E-09
   -0.85275936777356339890E-09
   -0.84009802227894348238E-09
   -0.24364277076887640687E-09
    0.53809427405792810305E-09
   -0.29130617459039445110E-09
    0.18735038761029595140E-09
    0.13519591620493696777E-08
    0.83452050916300936259E-09
    0.20561375061468324067E-08
    0.93479581567523165728E-09
    0.18120237476789192798E-08
    0.10367220249222350320E-08
    0.12633697205119019063E-08
    0.13099153657898322108E-09
    0.59763506631374546929E-09
    0.62331020189617677859E-09
   -0.27234052177703676570E-09
    0.52340965746150738733E-09
   -0.29772516407020048152E-09
    0.18356997883974772786E-09
    0.13463934388646751301E-08
    0.83133668168127007422E-09
    0.20502145287136164938E-08
    0.92202073847440140531E-09
    0.17869474175546729584E-08
    0.99719688696847262912E-09
    0.12324608643692281801E-08
    0.81038760615940792119E-10
    0.58220941011855406552E-09
    0.61171979743389028881E-09
   -0.10150154709083201645E-08
   -0.55847495191922214311E-09
   -0.11362407771873335835E-08
   -0.96584548172600567039E-09
   -0.45454290842169803334E-09
   -0.81856752617053235997E-09
   -0.42684212943172621931E-09
   -0.20897559341376139762E-09
   -0.59506285528404225302E-09
   -0.58329499517626182695E-09
   -0.43601681754510114262E-09
   -0.10141841263840071459E-08
   -0.11163091169657117305E-08
   -0.10513619086329510742E-08
   -0.10461659962504968695E-08
   -0.57401027168020072325E-09
   -0.11397930962385868358E-08
   -0.96769019436178914504E-09
   -0.46029379964815256526E-09
   -0.82192038049421966218E-09
   -0.43341924930852788702E-09
   -0.22371927561570300226E-09
   -0.62442907576396591750E-09
   -0.63066472951519394076E-09
   -0.47204511212827643919E-09
   -0.10715654675212090917E-08
   -0.11338263902041583591E-08
   -0.10645017442390085321E-08
    0.10149900158077385510E-08
    0.13421197681545686589E-08
    0.12566733441085082923E-09
   -0.94464706378132270852E-10
    0.58858621253715040141E-09
   -0.30856319996687974414E-09
    0.29227994646188220149E-09
    0.12954368829340029984E-08
    0.94242687305588511779E-09
    0.20656516442258346165E-08
    0.99626623363530025413E-09
    0.18399583285119220628E-08
    0.66238412290786058412E-09
    0.67237792247076723855E-09
   -0.66017925181884160032E-09
   -0.41512294331514827458E-09
   -0.10848571464507096836E-08
   -0.99788609595441260271E-09
   -0.56714556619600405251E-09
   -0.11346744909493137429E-08
   -0.91589343547286258152E-09
   -0.40527877097422165609E-09
   -0.72570173278716815783E-09
   -0.37886690131830167871E-09
   -0.18570322797532511649E-09
   -0.46755048396192265202E-09
   -0.10461962448842783508E-08
   -0.10821115939493305619E-08
    0.10121793852367218900E-08
    0.13371709157858332527E-08
    0.12233535292885552703E-09
   -0.10014783467502954189E-09
    0.57546320201744334825E-09
   -0.33432388027315711948E-09
    0.24711454421342389382E-09
    0.12675327252675940716E-08
    0.90655695214316900835E-09
    0.20429754106658509619E-08
    0.98478073792174983549E-09
    0.18346700485570273127E-08
    0.65200320210132259156E-09
    0.65853937164315320533E-09
   -0.66307808377127737943E-09
   -0.42011643808560385323E-09
   -0.10861709310764235626E-08
   -0.10005883003188508614E-08
   -0.58086197350440534731E-09
   -0.11625090867180654113E-08
   -0.96769027926400612533E-09
   -0.43762469850134232490E-09
   -0.76837936169882107717E-09
   -0.40520283839023988026E-09
   -0.19882153258520631820E-09
   -0.47335562462886045624E-09
   -0.10578388536381793732E-08
   -0.10976888051992582066E-08
   -0.10853996321638920757E-08
   -0.66798756085705028420E-09
   -0.12087159918192043241E-08
   -0.10783735589251584174E-08
   -0.68728489576804042244E-09
   -0.12123224081155251833E-08
   -0.10464926897346658553E-08
   -0.64836422067369735706E-09
   -0.11471853493844254355E-08
   -0.97317125878272296405E-09
   -0.65959778961591342267E-09
   -0.11333724500813477757E-08
   -0.13191486699308506056E-08
   -0.13028616983359821763E-08
   -0.10374937611600797615E-08
   -0.57347851875799771161E-09
   -0.82552906953410058595E-09
   -0.76637083390478413369E-09
   -0.60852414942608974856E-09
   -0.11760093864835947567E-08
   -0.10444799938865307031E-08
   -0.65552878486351041690E-09
   -0.11772668138543271279E-08
   -0.10216800212500781669E-08
   -0.68592787394608036486E-09
   -0.11743728424929519509E-08
   -0.13055356277740509689E-08
   -0.12882049721158638693E-08
   -0.10485869174768134705E-08
   -0.58841808203954196039E-09
   -0.89614888327146460875E-09
   -0.69430078754534967456E-09
   -0.59091848685147447257E-09
   -0.11610828458131649091E-08
   -0.10818657272295284322E-08
   -0.67089746050457137068E-09
   -0.11907508784425029062E-08
   -0.99994873992633317333E-09
   -0.66500271040510348959E-09
   -0.11304935193065838568E-08
   -0.13029198651468588898E-08
   -0.12872373640082802809E-08
    0.25591274091178001655E-08
    0.54489509999987284115E-08
    0.19047159265411457161E-07
    0.19177771721308083002E-07
    0.54306694318644840929E-08
    0.24349802160925356325E-08
   -0.19106751919457455633E-09
    0.37519452991473581534E-10
   -0.10610330820827217459E-08
   -0.88865001948410421609E-09
    0.24261321053795079269E-10
   -0.28267650587352246795E-09
    0.73439430817285806720E-09
    0.75111376427255743965E-09
   -0.27335151385615807345E-09
    0.52298716604109857278E-09
   -0.29765117568157652073E-09
    0.18359811823650947487E-09
    0.13462644026024301672E-08
    0.83126222957955804224E-09
    0.20500419796187832845E-08
    0.92157674906820640770E-09
    0.17859286877393608917E-08
    0.99535692328767452331E-09
    0.12311792762022425609E-08
    0.78769655038874507387E-10
    0.58168547681061821664E-09
    0.61135009846479237824E-09
   -0.27237670133278315760E-09
    0.52357704106016142200E-09
   -0.29581944214155603241E-09
    0.18434063682897736405E-09
    0.13464387641314139669E-08
    0.83130675783158338974E-09
    0.20500542577661205062E-08
    0.92159037168687998336E-09
    0.17859125370085917168E-08
    0.99532607100044867055E-09
    0.12312218269207208028E-08
    0.78928381171567477578E-10
    0.58181088517571342052E-09
    0.61142527441392937377E-09
   -0.10250926251266142954E-08
   -0.55462243938412071652E-09
   -0.10742008741805553276E-08
   -0.93115484484130334071E-09
   -0.45113738703240725900E-09
   -0.81891091327673675999E-09
   -0.43288102122275404905E-09
   -0.22320913245039388569E-09
   -0.62531595189608875212E-09
   -0.63232984974695705569E-09
   -0.47132700823239628396E-09
   -0.10692571511070716570E-08
   -0.11293543815203247789E-08
   -0.10612472181051861117E-08
   -0.75515399151377693044E-09
   -0.36820317303693456615E-09
   -0.54313014342002928816E-09
   -0.67943858768674362028E-09
   -0.38394127549509966311E-09
   -0.79921574856117872279E-09
   -0.42776137268602691497E-09
   -0.21440357094699729474E-09
   -0.62287381456929364862E-09
   -0.62765755138553293003E-09
   -0.44647925902250258045E-09
   -0.10058825847581122073E-08
   -0.10808970777548081477E-08
   -0.10291274132633073223E-08
   -0.26768735531821569668E-09
    0.52577922837642664474E-09
   -0.29020641064446055836E-09
    0.18632409431161290256E-09
    0.13469330601062641751E-08
    0.83141994656408756409E-09
    0.20500944940734404259E-08
    0.92166375234411111005E-09
    0.17859427483017661339E-08
    0.99538514188269044797E-09
    0.12315450015190667477E-08
    0.79995369370241082814E-10
    0.58232518375203690054E-09
    0.61171129769711061563E-09
   -0.25898246166008155900E-09
    0.52885411593970273306E-09
   -0.28454416037960864540E-09
    0.18797285375180272954E-09
    0.13473802630304076837E-08
    0.83151556732715791481E-09
    0.20501418446280036062E-08
    0.92176666763189478113E-09
    0.17859990160007434656E-08
    0.99550605509116886099E-09
    0.12321600505916978310E-08
    0.82220917732331334583E-10
    0.58306723438242666644E-09
    0.61208629864516083548E-09
    0.64059856875986226692E-09
    0.37764881284488061863E-09
    0.12147414124553542918E-08
    0.36055375395443955794E-10
   -0.18322813360540767263E-09
   -0.74728009497767981077E-09
   -0.41232337977977106251E-09
   -0.18091320047545538764E-09
   -0.61133708685438985636E-09
   -0.60213650062092702692E-09
   -0.32032047818867562283E-09
   -0.64659748431077438330E-09
   -0.88252738082341421502E-09
   -0.90861236201261707341E-09
    0.34000383114857366270E-08
    0.14744811767475770581E-08
    0.30802863863821599136E-08
    0.65018517981739351000E-09
    0.41038293823658643637E-11
   -0.70740891210279407903E-09
   -0.39701003890202359467E-09
   -0.13485145328753933872E-09
   -0.58994402338787717361E-09
   -0.54669048942340239295E-09
   -0.68037627865546863580E-10
    0.15946188265480449501E-09
   -0.58226481757869860310E-09
   -0.74526395988204190418E-09
    0.15991192435377206623E-08
    0.22023021953052425620E-08
    0.77177907234321882384E-08
    0.49253583929225661081E-08
    0.10169573583905501303E-08
   -0.52078334608933084321E-09
   -0.87720229712702661789E-09
   -0.45444682583880067871E-09
   -0.11283914224232398591E-08
   -0.95324966180599059327E-09
   -0.34253071040637017130E-09
   -0.53741761802098593277E-09
   -0.49055867987184875687E-09
   -0.63338953956676926182E-09
    0.38342303864282337260E-07
    0.31678719438116213164E-07
    0.85534854195733211615E-07
    0.48467599483048207882E-07
    0.14156417177163586572E-07
    0.40873972668189224861E-08
    0.44958526905704503538E-09
    0.15629826318535866880E-08
   -0.52650372794007342498E-09
    0.42137561918133996954E-10
    0.42151141739893528190E-08
    0.92014410021531154930E-08
    0.83648350674393581844E-08
    0.58390700029780150001E-08
    0.14837146841792203531E-06
    0.18903547300459189154E-06
    0.54793636515215842213E-06
    0.44431739186359451566E-06
    0.14261235919345722847E-06
    0.71010768741720909356E-07
    0.19085709213991663700E-07
    0.20044391913028695056E-07
    0.42302723593553693397E-08
    0.54444923996611235662E-08
    0.26687563238308405283E-07
    0.39394957712760059477E-07
    0.64017921916929208612E-07
    0.57214823447639376030E-07
    0.25407503523609399989E-05
    0.24355170384402978796E-05
    0.60473641167359519516E-05
    0.40990715558197251411E-05
    0.14000309779120473524E-05
    0.60853261498781894497E-06
    0.19136113126342178140E-06
    0.24870034077215863549E-06
    0.77525823444472381740E-07
    0.10952296496506045954E-06
    0.43486762166094121329E-06
    0.75852106678755005291E-06
    0.85560587541252753319E-06
    0.69531163727781961303E-06
    0.24837756775156965402E-06
    0.16062080883412835840E-06
    0.36572435329385953545E-06
    0.18148151164582080968E-06
    0.56702915049799513066E-07
    0.17097372401753308994E-07
    0.47722202778747545213E-08
    0.99266908159423454387E-08
    0.25688307348250039199E-08
    0.60110964328660646798E-08
    0.29654071764912932465E-07
    0.70930640839496398215E-07
    0.48055217637240490802E-07
    0.32305508743861932377E-07
    0.69251509768196757244E-06
    0.36134313424300201799E-06
    0.67972033886992561046E-06
    0.30038703347744916805E-06
    0.98628445566588346558E-07
    0.27489151918315786457E-07
    0.92823014656191230794E-08
    0.22106302714318699985E-07
    0.86861751372865495431E-08
    0.19964810699541832580E-07
    0.83969728402829437074E-07
    0.22115866776904038853E-06
    0.11179166368902250570E-06
    0.70203082824414867710E-07
    0.17698822917740592112E-04
    0.13204446206055307284E-04
    0.27595324889432227211E-04
    0.16128391967335415524E-04
    0.58335779767374049462E-05
    0.22385742990468986171E-05
    0.80131584648523790904E-06
    0.12880581546904460243E-05
    0.49444982557543319353E-06
    0.80557863254832408366E-06
    0.29518457246622888202E-05
    0.58901220079452485805E-05
    0.47540379217551209266E-05
    0.35521167020967045546E-05
    0.51991322475212234334E-04
    0.30952000538904069936E-04
    0.53071628015940514782E-04
    0.27333562519397860274E-04
    0.10459460646076910748E-04
    0.35953224463631476035E-05
    0.14727338557252060920E-05
    0.28948010325808263132E-05
    0.13760624739770952524E-05
    0.25615044512139699526E-05
    0.86950087300306421400E-05
    0.19477889734638754879E-04
    0.11400756878167344732E-04
    0.78807588050314557999E-05
    0.10121190353630085822E-08
    0.13370664867489381321E-08
    0.12237905373448529037E-09
   -0.10004224643580425644E-09
    0.57511341604307310334E-09
   -0.33517950422705807720E-09
    0.24513093885189746358E-09
    0.12664218912297038617E-08
    0.90495574909007323864E-09
    0.20420968199243933237E-08
    0.98440660426361444204E-09
    0.18345274972305729442E-08
    0.65169157365790662787E-09
    0.65809299062241518584E-09
   -0.66005273611251045796E-09
   -0.41092870741314492738E-09
   -0.10496146271446163712E-08
   -0.93495568591406989247E-09
   -0.56138560542391540952E-09
   -0.11412553893991312315E-08
   -0.96504336714891907830E-09
   -0.43670191288792644993E-09
   -0.76976040898050558560E-09
   -0.40592611503649332220E-09
   -0.19823442105823065508E-09
   -0.47278556648436658334E-09
   -0.10545168511683177792E-08
   -0.10931221226899756137E-08
    0.10121648524676547603E-08
    0.13372424675430780222E-08
    0.12312259771350513950E-09
   -0.98209210577139344378E-10
    0.57570565840425834788E-09
   -0.33420122839306459945E-09
    0.24529836610347411249E-09
    0.12664722060246069848E-08
    0.90493423634391438798E-09
    0.20420884395845994151E-08
    0.98442182369301364631E-09
    0.18345424732748593267E-08
    0.65177023140611150730E-09
    0.65822304401898224632E-09
   -0.64035592178205865026E-09
   -0.34372833743039181930E-09
   -0.79789104975986444920E-09
   -0.40387552341363816580E-09
   -0.37495847128455392369E-09
   -0.87130304585026070819E-09
   -0.90165730164370965579E-09
   -0.41184697316001256631E-09
   -0.76507901427564379521E-09
   -0.40348003831466324820E-09
   -0.18942692560692804597E-09
   -0.46766468636319633834E-09
   -0.10223914549255076203E-08
   -0.10446594632821340349E-08
   -0.39332016660362848376E-09
    0.10371421283164341034E-08
    0.47957073402785711828E-08
    0.78491996058778052486E-08
    0.21850271853255257876E-08
    0.14757878740724855566E-08
   -0.44453236239574411263E-09
   -0.32725984236213167367E-09
   -0.11220021978507181383E-08
   -0.95088603672725799399E-09
   -0.46382113359665019235E-09
   -0.96316987808961063535E-09
   -0.64799803653052243365E-09
   -0.47212260130770267319E-09
    0.71135391903872004889E-07
    0.14263137582431008299E-06
    0.44418813581803198850E-06
    0.54806823155626448173E-06
    0.18901791338297314328E-06
    0.14824781539577573003E-06
    0.39487067650888796344E-07
    0.26701248255757884364E-07
    0.52725186713570290622E-08
    0.44029441725809018038E-08
    0.20031458324902753443E-07
    0.18994362241822014400E-07
    0.57198596025298530026E-07
    0.64035147980837902714E-07
    0.42148830938689736781E-08
    0.14176654034087478473E-07
    0.48338044078746694268E-07
    0.85666436577746893820E-07
    0.31661593858859017963E-07
    0.38219220487533195826E-07
    0.92944579579427916710E-08
    0.42304537723871754692E-08
   -0.12657925032654884082E-09
   -0.34897785244005366930E-09
    0.15536315941316753328E-08
    0.36363100054571470008E-09
    0.58245106038079511432E-08
    0.83833415384527342194E-08
    0.60865759047342809335E-06
    0.14000507636020248109E-05
    0.40989434697572041234E-05
    0.60474978573578894959E-05
    0.24355015804932595038E-05
    0.25406300409085309201E-05
    0.75861494888576960738E-06
    0.43488240327231608525E-06
    0.10935152160008124082E-06
    0.77698863957394397720E-07
    0.24868790686352876797E-06
    0.19127005093123902125E-06
    0.69529631945643241241E-06
    0.85562429387596551811E-06
    0.10122772660289339551E-08
    0.13377373825450803583E-08
    0.12510670322640058550E-09
   -0.92594666292218694996E-10
    0.57790741684418085981E-09
   -0.32950967711159811171E-09
    0.24636530368935177959E-09
    0.12667955866461819475E-08
    0.90499360653062330411E-09
    0.20421187250042405235E-08
    0.98449646573408157127E-09
    0.18345816920938234331E-08
    0.65205759008392671407E-09
    0.65873759937735861438E-09
   -0.58842047569308074613E-09
   -0.14301306441277684239E-09
   -0.82398461056550413854E-10
    0.13539949391945033874E-08
    0.37089429294088146762E-09
    0.52445422750590973686E-09
   -0.54236615204777698157E-09
   -0.28568446824891008143E-09
   -0.73955577105307035534E-09
   -0.39194027487431660380E-09
   -0.15593437139266260555E-09
   -0.45222598113157028697E-09
   -0.90187686208060849478E-09
   -0.84628875733485553882E-09
    0.10123693093962062505E-08
    0.13381810201855928796E-08
    0.12674890567998463329E-09
   -0.86937777605800935830E-10
    0.58097962026609485910E-09
   -0.32080685689665493967E-09
    0.24858944035641186429E-09
    0.12674088995603813505E-08
    0.90511421825081324119E-09
    0.20421717732042884332E-08
    0.98459653227031562468E-09
    0.18346267126620598693E-08
    0.65242735962863738407E-09
    0.65947621791524604823E-09
   -0.54855896563580602597E-09
    0.44309710445101416299E-10
    0.53172306685739095398E-09
    0.32195373932948104974E-08
    0.14677251835479839162E-08
    0.32838959733071489874E-08
    0.26369198599229687291E-09
   -0.33403542523528967021E-10
   -0.68410997926561182828E-09
   -0.37054998193477404788E-09
   -0.10987613531364774469E-09
   -0.43691797495731009004E-09
   -0.73853272504960289107E-09
   -0.54603031610141133684E-09
    0.17224858347945704292E-07
    0.56723163339150807673E-07
    0.18135197321764956562E-06
    0.36585596014753956475E-06
    0.16060373327223764419E-06
    0.24825459036410536121E-06
    0.71023737262857669997E-07
    0.29669446057590070260E-07
    0.58423973293322145113E-08
    0.27463657991723282530E-08
    0.99173497400615393044E-08
    0.46862655339104842813E-08
    0.32290970397248411744E-07
    0.48073753932708597644E-07
    0.22386992517426947786E-05
    0.58335977374496280463E-05
    0.16128263841094631195E-04
    0.27595458190098854311E-04
    0.13204431043700355855E-04
    0.17698703171136117576E-04
    0.58902167722729277953E-05
    0.29518609129453198346E-05
    0.80540746494147449631E-06
    0.49462301495675944078E-06
    0.12880458356204267808E-05
    0.80122479570708065840E-06
    0.35521015320596809843E-05