# vtk DataFile Version 3.0
LAPLACIEN  2D
ASCII
DATASET UNSTRUCTURED_GRID
 POINTS        1857  float
   3.1250000000000000E-002  0.93750000000000000        0.0000000000000000     
   6.2500000000000000E-002  0.93750000000000000        0.0000000000000000     
   6.2500000000000000E-002  0.96875000000000000        0.0000000000000000     
   1.8749999999999999E-002  0.95625000000000004        0.0000000000000000     
   4.0625000000000001E-002  0.95937499999999998        0.0000000000000000     
   4.3749999999999997E-002  0.98124999999999996        0.0000000000000000     
   2.1874999999999999E-002  0.97812500000000002        0.0000000000000000     
   9.3750000000000000E-002  0.93750000000000000        0.0000000000000000     
  0.12500000000000000       0.93750000000000000        0.0000000000000000     
  0.12500000000000000       0.96875000000000000        0.0000000000000000     
   8.1250000000000003E-002  0.95625000000000004        0.0000000000000000     
  0.10312499999999999       0.95937499999999998        0.0000000000000000     
  0.10625000000000000       0.98124999999999996        0.0000000000000000     
   8.4375000000000006E-002  0.97812500000000002        0.0000000000000000     
   3.1250000000000000E-002  0.87500000000000000        0.0000000000000000     
   6.2500000000000000E-002  0.87500000000000000        0.0000000000000000     
   6.2500000000000000E-002  0.90625000000000000        0.0000000000000000     
   1.8749999999999999E-002  0.89375000000000004        0.0000000000000000     
   4.0625000000000001E-002  0.89687499999999998        0.0000000000000000     
   4.3749999999999997E-002  0.91874999999999996        0.0000000000000000     
   2.1874999999999999E-002  0.91562500000000002        0.0000000000000000     
   9.3750000000000000E-002  0.87500000000000000        0.0000000000000000     
  0.12500000000000000       0.87500000000000000        0.0000000000000000     
  0.12500000000000000       0.90625000000000000        0.0000000000000000     
   8.1250000000000003E-002  0.89375000000000004        0.0000000000000000     
  0.10312499999999999       0.89687499999999998        0.0000000000000000     
  0.10625000000000000       0.91874999999999996        0.0000000000000000     
   8.4375000000000006E-002  0.91562500000000002        0.0000000000000000     
  0.15625000000000000       0.93750000000000000        0.0000000000000000     
  0.18750000000000000       0.93750000000000000        0.0000000000000000     
  0.18750000000000000       0.96875000000000000        0.0000000000000000     
  0.14374999999999999       0.95625000000000004        0.0000000000000000     
  0.16562499999999999       0.95937499999999998        0.0000000000000000     
  0.16875000000000001       0.98124999999999996        0.0000000000000000     
  0.14687500000000001       0.97812500000000002        0.0000000000000000     
  0.21875000000000000       0.93750000000000000        0.0000000000000000     
  0.25000000000000000       0.93750000000000000        0.0000000000000000     
  0.25000000000000000       0.96875000000000000        0.0000000000000000     
  0.20624999999999999       0.95625000000000004        0.0000000000000000     
  0.22812499999999999       0.95937499999999998        0.0000000000000000     
  0.23125000000000001       0.98124999999999996        0.0000000000000000     
  0.20937500000000001       0.97812500000000002        0.0000000000000000     
  0.15625000000000000       0.87500000000000000        0.0000000000000000     
  0.18750000000000000       0.87500000000000000        0.0000000000000000     
  0.18750000000000000       0.90625000000000000        0.0000000000000000     
  0.14374999999999999       0.89375000000000004        0.0000000000000000     
  0.16562499999999999       0.89687499999999998        0.0000000000000000     
  0.16875000000000001       0.91874999999999996        0.0000000000000000     
  0.14687500000000001       0.91562500000000002        0.0000000000000000     
  0.21875000000000000       0.87500000000000000        0.0000000000000000     
  0.25000000000000000       0.87500000000000000        0.0000000000000000     
  0.25000000000000000       0.90625000000000000        0.0000000000000000     
  0.20624999999999999       0.89375000000000004        0.0000000000000000     
  0.22812499999999999       0.89687499999999998        0.0000000000000000     
  0.23125000000000001       0.91874999999999996        0.0000000000000000     
  0.20937500000000001       0.91562500000000002        0.0000000000000000     
   3.1250000000000000E-002  0.81250000000000000        0.0000000000000000     
   6.2500000000000000E-002  0.81250000000000000        0.0000000000000000     
   6.2500000000000000E-002  0.84375000000000000        0.0000000000000000     
   1.8749999999999999E-002  0.83125000000000004        0.0000000000000000     
   4.0625000000000001E-002  0.83437499999999998        0.0000000000000000     
   4.3749999999999997E-002  0.85624999999999996        0.0000000000000000     
   2.1874999999999999E-002  0.85312500000000002        0.0000000000000000     
   9.3750000000000000E-002  0.81250000000000000        0.0000000000000000     
  0.12500000000000000       0.81250000000000000        0.0000000000000000     
  0.12500000000000000       0.84375000000000000        0.0000000000000000     
   8.1250000000000003E-002  0.83125000000000004        0.0000000000000000     
  0.10312499999999999       0.83437499999999998        0.0000000000000000     
  0.10625000000000000       0.85624999999999996        0.0000000000000000     
   8.4375000000000006E-002  0.85312500000000002        0.0000000000000000     
   3.1250000000000000E-002  0.75000000000000000        0.0000000000000000     
   6.2500000000000000E-002  0.75000000000000000        0.0000000000000000     
   6.2500000000000000E-002  0.78125000000000000        0.0000000000000000     
   1.8749999999999999E-002  0.76875000000000004        0.0000000000000000     
   4.0625000000000001E-002  0.77187499999999998        0.0000000000000000     
   4.3749999999999997E-002  0.79374999999999996        0.0000000000000000     
   2.1874999999999999E-002  0.79062500000000002        0.0000000000000000     
   9.3750000000000000E-002  0.75000000000000000        0.0000000000000000     
  0.12500000000000000       0.75000000000000000        0.0000000000000000     
  0.12500000000000000       0.78125000000000000        0.0000000000000000     
   8.1250000000000003E-002  0.76875000000000004        0.0000000000000000     
  0.10312499999999999       0.77187499999999998        0.0000000000000000     
  0.10625000000000000       0.79374999999999996        0.0000000000000000     
   8.4375000000000006E-002  0.79062500000000002        0.0000000000000000     
  0.15625000000000000       0.81250000000000000        0.0000000000000000     
  0.18750000000000000       0.81250000000000000        0.0000000000000000     
  0.18750000000000000       0.84375000000000000        0.0000000000000000     
  0.14374999999999999       0.83125000000000004        0.0000000000000000     
  0.16562499999999999       0.83437499999999998        0.0000000000000000     
  0.16875000000000001       0.85624999999999996        0.0000000000000000     
  0.14687500000000001       0.85312500000000002        0.0000000000000000     
  0.21875000000000000       0.81250000000000000        0.0000000000000000     
  0.25000000000000000       0.81250000000000000        0.0000000000000000     
  0.25000000000000000       0.84375000000000000        0.0000000000000000     
  0.20624999999999999       0.83125000000000004        0.0000000000000000     
  0.22812499999999999       0.83437499999999998        0.0000000000000000     
  0.23125000000000001       0.85624999999999996        0.0000000000000000     
  0.20937500000000001       0.85312500000000002        0.0000000000000000     
  0.15625000000000000       0.75000000000000000        0.0000000000000000     
  0.18750000000000000       0.75000000000000000        0.0000000000000000     
  0.18750000000000000       0.78125000000000000        0.0000000000000000     
  0.14374999999999999       0.76875000000000004        0.0000000000000000     
  0.16562499999999999       0.77187499999999998        0.0000000000000000     
  0.16875000000000001       0.79374999999999996        0.0000000000000000     
  0.14687500000000001       0.79062500000000002        0.0000000000000000     
  0.21875000000000000       0.75000000000000000        0.0000000000000000     
  0.25000000000000000       0.75000000000000000        0.0000000000000000     
  0.25000000000000000       0.78125000000000000        0.0000000000000000     
  0.20624999999999999       0.76875000000000004        0.0000000000000000     
  0.22812499999999999       0.77187499999999998        0.0000000000000000     
  0.23125000000000001       0.79374999999999996        0.0000000000000000     
  0.20937500000000001       0.79062500000000002        0.0000000000000000     
  0.28125000000000000       0.93750000000000000        0.0000000000000000     
  0.31250000000000000       0.93750000000000000        0.0000000000000000     
  0.31250000000000000       0.96875000000000000        0.0000000000000000     
  0.26874999999999999       0.95625000000000004        0.0000000000000000     
  0.29062500000000002       0.95937499999999998        0.0000000000000000     
  0.29375000000000001       0.98124999999999996        0.0000000000000000     
  0.27187499999999998       0.97812500000000002        0.0000000000000000     
  0.34375000000000000       0.93750000000000000        0.0000000000000000     
  0.37500000000000000       0.93750000000000000        0.0000000000000000     
  0.37500000000000000       0.96875000000000000        0.0000000000000000     
  0.33124999999999999       0.95625000000000004        0.0000000000000000     
  0.35312500000000002       0.95937499999999998        0.0000000000000000     
  0.35625000000000001       0.98124999999999996        0.0000000000000000     
[...]
 CELL_DATA        3584
 SCALARS VEGF float
 LOOKUP_TABLE default
    0.33082390771925458780E-08
    0.39360774785373633813E-08
    0.25994312713651851479E-08
    0.27145251928231988741E-08
    0.39963353692385700385E-08
    0.31732805547613762987E-08
    0.44803450835647858712E-08
    0.35832849823162512080E-08
    0.36095421811760706288E-08
    0.37981385690345961797E-08
    0.35611142836488044820E-08
    0.42246923481136949964E-08
    0.37394111417105244371E-08
    0.37684600756155787701E-08
    0.17685944632873208117E-08
    0.23514129916771510143E-08
    0.13901489621955382695E-08
    0.18185277796952800638E-08
    0.30195618247509140242E-08
    0.24890299037384208637E-08
    0.36640333521379612496E-08
    0.27388437718864677609E-08
    0.37271291135745217374E-08
    0.31524008403073695733E-08
    0.32891157589986094056E-08
    0.23754579236740809130E-08
    0.24847776850896946077E-08
    0.24595527068794505162E-08
    0.26666386997122170461E-08
    0.30153498554318430905E-08
    0.17656248379717754733E-08
    0.15718683094180602311E-08
    0.23803914689191582697E-08
    0.16702936382591348226E-08
    0.24886226431184045369E-08
    0.33000890725811957176E-08
    0.30390593345996086872E-08
    0.39431219356265483308E-08
    0.27854908558808595138E-08
    0.34617208067329157584E-08
    0.24903146526410190436E-08
    0.25445646413373162762E-08
    0.96794337080230934735E-09
    0.12503416922103040696E-08
    0.76546853889779688267E-09
    0.88201097918423878064E-09
    0.12127999683739199356E-08
    0.80763525913140451525E-09
    0.12389927251594005156E-08
    0.15573790721351746862E-08
    0.14138752928980061725E-08
    0.15819257877733123000E-08
    0.15583073028489826376E-08
    0.11971660370211133911E-08
    0.71367834567272751530E-09
    0.72454803257566936429E-09
    0.13224416440163790842E-08
    0.21038860108213465805E-08
    0.14310206879497669456E-08
    0.18709599437860446041E-08
    0.29030866303421142834E-08
    0.23954113558796119113E-08
    0.34864036807139471665E-08
    0.24543635725233419330E-08
    0.32991633492279454356E-08
    0.26055639425547150833E-08
    0.27956722280392865741E-08
    0.16874115373842622757E-08
    0.21762339164791989143E-08
    0.22005698876726145478E-08
    0.22357758710420473049E-08
    0.30325973407271589583E-08
    0.36307347605305379706E-08
    0.35239758121043166793E-08
    0.35301834760805168506E-08
    0.27552547605780500254E-08
    0.36471023363635043689E-08
    0.25699509010349419948E-08
    0.32925676155932470690E-08
    0.25706031288918483429E-08
    0.29231874604129814715E-08
    0.19026450036682386148E-08
    0.25203420532128532891E-08
    0.25031990571275604706E-08
    0.23861208264100384192E-08
    0.33515051959653523848E-08
    0.65348596783873366750E-08
    0.61253363591695989485E-08
    0.31424243418626360897E-08
    0.20237543528002072825E-08
    0.14908185381278120691E-08
    0.16462863411458593266E-08
    0.10102171075546030611E-08
    0.10030531701477690153E-08
    0.14494322017399048387E-08
    0.10344349063346444892E-08
    0.13844511907826020276E-08
    0.14034060290076422883E-08
    0.24979690170975138753E-07
    0.27509308540498421099E-07
    0.59547277150973441315E-07
    0.49463923329981574019E-07
    0.21020480275319989304E-07
    0.12474787267964248679E-07
    0.54523001066969306619E-08
    0.59230093344825847093E-08
    0.25757095135535741978E-08
    0.28516623739114575967E-08
    0.72206860376338456710E-08
    0.92598599584392645980E-08
    0.12039724716224587419E-07
    0.10999779008451977570E-07
    0.25832055146056215766E-08
    0.29126874503062700460E-08
    0.18300073668035808014E-08
    0.16286143455386050522E-08
    0.21571141889355211846E-08
    0.12607681399115162488E-08
    0.18502137173811947678E-08
    0.28410402434003994747E-08
    0.25273820622562311649E-08
    0.35431826108790460832E-08
    0.25211283227810456579E-08
    0.32977940250949782056E-08
    0.22515314144954539224E-08
    0.22598012984786473428E-08
    0.21959611092622352503E-08
    0.31960164550866177206E-08
    0.60220197669434231519E-08
    0.66685164730239972017E-08
    0.33404887525688539827E-08
    0.22640227460561623327E-08
    0.11292242843464327236E-08
    0.14897747205545272526E-08
    0.88396157467845442457E-09
    0.12156678709469741747E-08
    0.16724666418993535518E-08
    0.14652854819040189542E-08
    0.14165525801356186907E-08
    0.14231731053399359062E-08
    0.29448239788435102222E-08
    0.35422309882976967763E-08
    0.34850247606062643845E-08
    0.38310404048803781878E-08
    0.30901984449932063036E-08
    0.21807868225254421463E-08
    0.20747355976930293122E-08
    0.29753820667212273145E-08
    0.25002963804067000402E-08
    0.35426082938002679783E-08
    0.26406897648335882131E-08
    0.34610316106188385555E-08
    0.25579500280893643362E-08
    0.26083897607393577009E-08
    0.12648944858470881463E-07
    0.21076785665218633751E-07
    0.49362804088761469707E-07
    0.59683880397998396829E-07
    0.27503086737451380792E-07
    0.24864817568398894208E-07
    0.93649189478381250421E-08
    0.72687234555379253600E-08
    0.27416555451223508983E-08
    0.27879671416457576349E-08
    0.59536419679738653598E-08
    0.54295354506464768513E-08
    0.11017157393847960859E-07
    0.12083449593718414371E-07
    0.29222672432761746616E-07
    0.40217595675815576540E-07
    0.92552319092321508686E-07
    0.92672694140154082095E-07
    0.40190344271314289690E-07
    0.29088229408609251950E-07
    0.10961824467625415877E-07
    0.99245343322795289344E-08
    0.34122467457075003531E-08
    0.35693616136364399354E-08
    0.99099457074989629686E-08
    0.10884197444836984416E-07
    0.19071931233714774890E-07
    0.19086539398883216375E-07
    0.36429002469004488916E-06
    0.43299250857635806999E-06
    0.92738128716502646953E-06
    0.84016362439094190685E-06
    0.37268349931315518739E-06
    0.24819208234522832477E-06
    0.99417717165149868098E-07
    0.98236663923359129057E-07
    0.38475445371172032819E-07
    0.42067198726438781075E-07
    0.11417095559945394448E-06
    0.14336502913672497424E-06
    0.21011367016997131427E-06
    0.19960605850684285617E-06
    0.24832859811034594397E-06
    0.37271357976169466199E-06
    0.84004550727015016225E-06
    0.92750464039763073365E-06
    0.43297013587881744026E-06
    0.36416285803452664212E-06
    0.14345300740783302970E-06
    0.11419343944511454309E-06
    0.41919546744636691046E-07
    0.38639787383388971503E-07
    0.98226783336065804732E-07
    0.99343062992247195260E-07
    0.19959585011651715858E-06
    0.21013343418204954126E-06
    0.33936428940515512282E-05
    0.44657038838023308653E-05
    0.93101756932153564844E-05
    0.93102968835128406024E-05
    0.44656787939412661220E-05
    0.33935138665414750223E-05
    0.14374492132605396067E-05
    0.12922554976448632585E-05
    0.52763707506636424646E-06
    0.52779197058920727766E-06
    0.12922377269581362927E-05
    0.14373641828818816604E-05
    0.24034283091788474359E-05
    0.24034436894437259601E-05
    0.86536966292377676340E-08
    0.85089677371459482264E-08
    0.14875635359384378005E-07
    0.11246056829365899557E-07
    0.66662426420670711033E-08
    0.44309392373408094723E-08
    0.45699779850994357848E-08
    0.34734741573578220892E-08
    0.37513377506717782940E-08
    0.30605725848235232356E-08
    0.43143243240122290757E-08
    0.42507342600512453030E-08
    0.47890449206431311008E-08
    0.43887774003945277377E-08
    0.33700935808509141980E-07
    0.27047173227634452765E-07
    0.48843555525521525633E-07
    0.32590867967516936387E-07
    0.15677516433752775209E-07
    0.88661299745693096583E-08
    0.72540649103292011591E-08
    0.64544239426687682802E-08
    0.55024270789292554481E-08
    0.51035425449953921925E-08
    0.97430421789174278744E-08
    0.14145451639812221376E-07
    0.12586012978634834856E-07
    0.10553358205195166037E-07
    0.17975443298334732415E-06
    0.17013220722484877452E-06
    0.34232425250199082331E-06
    0.25976649183256655676E-06
    0.11115129639426077840E-06
    0.60798092225677862499E-07
    0.25437612911067663259E-07
    0.30572256387901854619E-07
    0.13179574328011776137E-07
    0.16627570703665176615E-07
    0.46416724879243654151E-07
    0.70237273519844600608E-07
    0.75872815039918291553E-07
    0.65616361435741087372E-07
    0.81252424512712590001E-06
    0.67328165960526712616E-06
    0.12309572013164021863E-05
    0.86258243729711399641E-06
    0.38041342830587571768E-06
    0.19326528349433946394E-06
    0.85394800304456060562E-07
    0.11501842583436704966E-06
    0.54567343881472534308E-07
    0.75249276369303251160E-07
    0.20510114667246171164E-06
    0.33897718938550740791E-06
    0.30418912773322521245E-06
    0.25128320138792370131E-06
    0.90932869978705739902E-07
    0.63406552297771186149E-07
    0.10648244407869555086E-06
    0.65348369255090257723E-07
    0.30191957529874919530E-07
    0.15362824459772240071E-07
    0.11665186052142888615E-07
    0.12119554649351468709E-07
    0.93767455504683539403E-08
    0.10035542907074215234E-07
    0.22198150999427680162E-07
    0.38752021580459832133E-07
    0.28122100811806376341E-07
    0.22169767346982902176E-07
    0.15891702655276815055E-06
    0.98434156044280794625E-07
    0.14907407366604842537E-06
    0.85364167626298351150E-07
    0.40046982782059751859E-07
    0.19000492814345528328E-07
    0.14829290281718921211E-07
    0.17346438715943278806E-07
    0.13875832264573013199E-07
    0.16454882525278779850E-07
    0.37315476713444403113E-07
    0.71770741130025620382E-07
    0.43466036533428215117E-07
    0.32704835365569326161E-07
    0.23069564164242343092E-05
    0.16895024185496129625E-05
    0.27809672064762933788E-05
    0.18113974537321851325E-05
    0.82691983437659521825E-06
    0.39227713192564902458E-06
    0.18641078943291765558E-06
    0.28075778279762052105E-06
    0.14927884155395960223E-06
    0.22218911615094053253E-06
    0.58111460670919884859E-06
    0.10329416100652196847E-05
    0.77315489056445091251E-06
    0.61177093964294729010E-06
    0.41251072079307698806E-05
    0.26889887523761036643E-05
    0.39502404024976247790E-05
    0.24017563827648753961E-05
    0.11376077884663407688E-05
    0.50573956585166191411E-06
    0.26022000648734904070E-06
    0.43735132013519419346E-06
    0.26222940384297374489E-06
    0.41915303728262085088E-06
    0.10482953359956638322E-05
    0.19914451005466265928E-05
    0.12466003736400399412E-05
    0.94588682012103059268E-06
    0.28543721941137441106E-05
    0.29302307521470712597E-05
    0.57248193380581092866E-05
    0.47123148672631634036E-05
    0.21599150514957522125E-05
    0.13173440256161173713E-05
    0.56904117180207649300E-06
    0.63475882456189388699E-06
    0.27914715073659329061E-06
    0.33191940192773847932E-06
    0.86407541327129054711E-06
    0.11955871136252545063E-05
    0.14337635338677082803E-05
    0.12946021391701857429E-05
    0.13675565431243175162E-04
    0.12194569030729952443E-04
    0.21513994904924279298E-04
    0.16271252987647416289E-04
    0.77323219801406067999E-05
    0.43569875615963891684E-05
    0.20360869971823429286E-05
    0.25573841142216664466E-05
    0.12653113480226950422E-05
    0.16329729185797403594E-05
    0.40654402525293896372E-05
    0.61392879268101296927E-05
    0.60297588507634687798E-05
    0.51930600969019668182E-05
    0.29661372631265412505E-04
    0.33559620009341944395E-04
    0.63912388662387193588E-04
    0.57313760921390782084E-04
    0.28314955784835551064E-04
    0.19371860861582632655E-04
    0.88767692895102536589E-05
    0.91173562481374512638E-05
    0.41675658433620714301E-05
    0.45714889047557233942E-05
    0.10790627976171766761E-04
    0.13318618671097403198E-04
    0.18045923371688576438E-04
    0.17071668877993428226E-04
    0.15561822116431754540E-03
    0.14984334046782104535E-03
    0.25588688320893045267E-03
    0.20834440851043179040E-03
    0.10682291885372065113E-03
    0.66796354296674831895E-04
    0.33266920924118494843E-04
    0.38845453071990093306E-04
    0.20079304446502186781E-04
    0.24130230254614553389E-04
    0.54597247108972402996E-04
    0.74873271869477030878E-04
    0.80996682600034867572E-04
    0.72662259404874699831E-04
    0.40141839549239089608E-04
    0.31476199397553950758E-04
    0.49822412533512597764E-04
    0.34933701807657275640E-04
    0.17241590221173306555E-04
    0.90357144696223951725E-05
    0.45777394686763463229E-05
    0.64468410588713558317E-05
    0.35990049316559977623E-05
    0.50138905268248103116E-05
    0.11909143769634220888E-04
    0.19428722182257569383E-04
    0.15763340524781818566E-04
    0.12990345148023350831E-04
    0.73119222128603395938E-04
    0.50834401457743135422E-04
    0.71612849221958953510E-04
    0.46752494772920695292E-04
    0.24015926855202786051E-04
    0.11750026794334747152E-04
    0.64748153780560040399E-05
    0.10206082966671398799E-04
    0.64497530437031174778E-05
    0.96633579369490491445E-05
    0.21881072245570775303E-04
    0.38318773786563992850E-04
    0.25802663863614154136E-04
    0.20370813076309862710E-04
    0.47488103781475297926E-03
    0.39860365721018029819E-03
    0.60672862051097339615E-03
    0.45736046474893852359E-03
    0.24438543409075028263E-03
    0.14153148849528512693E-03
    0.76717767176742032655E-04
    0.10085055611812648228E-03
    0.59105980524312525166E-04
    0.77036103628358565247E-04
    0.16593369940628112575E-03
    0.24817039030219955383E-03
    0.21842234995130574383E-03
    0.18716004627906111281E-03
    0.87839425279370871545E-03
    0.65227104487699518950E-03
    0.88038498889292968012E-03
    0.61735321021686849919E-03
    0.34456855461859547344E-03
    0.18561101182402124968E-03
    0.10983868990142471307E-03
    0.16213900147502057283E-03
    0.10792812909970901896E-03
    0.15160636637984674759E-03
    0.31044285915598303143E-03
    0.50041746319072629660E-03
    0.36293433794638840784E-03
    0.29773126577333370582E-03
    0.46207350666942405830E-08
    0.66786226439142579651E-08
    0.11207361303377983998E-07
    0.15076304911768105066E-07
    0.85672058060914268271E-08
    0.85997272174329753128E-08
    0.44243271049245143824E-08
    0.43676055389150202376E-08
    0.29915858565335079124E-08
    0.40023406344102281754E-08
    0.35448043551843451237E-08
    0.43842545934412384467E-08
    0.44440793123508194343E-08
    0.48777591820236704693E-08
    0.60972498160729469684E-07
    0.11120797249141406885E-06
    0.25966567090227009453E-06
    0.34246126416599076030E-06
    0.17012669438380243431E-06
    0.17964068575596643252E-06
    0.70343988839929339117E-07
    0.46465954428578043942E-07
    0.16519010120347361398E-07
    0.13392871048079490741E-07
    0.30603531834753001073E-07
    0.25415220677437602059E-07
    0.65634347996420619799E-07
    0.75917275664555152918E-07
    0.90559458934308668689E-08
    0.15689925608623546133E-07
    0.32552197610059663758E-07
    0.49044262472775558640E-07
    0.27105481581470824907E-07
    0.33647089088266499669E-07
    0.14319230206914774607E-07
    0.97964512813524046622E-08
    0.50347165497547557317E-08
    0.57535418436394121921E-08
    0.65258191793359772255E-08
    0.70683762455693278081E-08
    0.10608718150653212510E-07
    0.12674799539032317102E-07
    0.19343972435977101905E-06
    0.38047017333157005175E-06
    0.86248172051189427357E-06
    0.12310943223950867680E-05
    0.67327627022531221966E-06
    0.81241066419027343806E-06
    0.33908413183594993755E-06
    0.20515053564915719910E-06
    0.75140894746859320634E-07
    0.54780763954936844856E-07
    0.11504978133934023279E-06
    0.85372448214083993032E-07
    0.25130127556303312304E-06
    0.30423369516316705535E-06
    0.13174807670034602276E-05
    0.21599453710362803321E-05
    0.47121965673782615182E-05
    0.57249422249452725544E-05
    0.29302088609499456228E-05
    0.28542459873811891583E-05
    0.11956767777720279468E-05
    0.86409913823071108700E-06
    0.33177329347655528767E-06
    0.27931262159239605909E-06
    0.63474963369795004808E-06
    0.56896692096756397832E-06
    0.12945925273571907850E-05
    0.14337840132458767937E-05
    0.19371984879767778699E-04
    0.28314973333319416645E-04
    0.57313621551737878724E-04
    0.63912491802710976341E-04
    0.33559589351990835968E-04
    0.29661242937876551286E-04
    0.13318704940894486892E-04
    0.10790645927414996085E-04
    0.45713351823222982630E-05
    0.41677214749464531218E-05
    0.91173376895246206172E-05
    0.88766828815731415778E-05
    0.17071650812403720720E-04
    0.18045936512876028347E-04
    0.43571245462760675873E-05
    0.77323524724282194500E-05
    0.16271135107703474766E-04
    0.21514116188810286374E-04
    0.12194546148025779442E-04
    0.13675436919337065068E-04
    0.61393771068198514467E-05
    0.40654638941459640792E-05
    0.16328269574052238607E-05
    0.12654769672960191513E-05
    0.25573750409736215462E-05
    0.20360128810231084354E-05
    0.51930504954159092501E-05
    0.60297791642981383100E-05
    0.66796475935474152472E-04
    0.10682291874603953451E-03
    0.20834424470056467100E-03
    0.25588688989997389681E-03
    0.14984325002301697406E-03
    0.15561801799510456535E-03
    0.74873329890539526963E-04
    0.54597246353914352136E-04
    0.24130069813657544989E-04
    0.20079455556126078226E-04
    0.38845425591423165103E-04
    0.33266831169452589618E-04
    0.72662221067062282955E-04
    0.80996668307563825175E-04
    0.15552640558879364433E-07
    0.30204369138197937291E-07
    0.65309702697924256451E-07
    0.10668315581960981510E-06
    0.63464868402361167796E-07
    0.90879039254949451208E-07
    0.38925820333973837623E-07
    0.22251569287219817689E-07
    0.99667295041648814933E-08
    0.96278672644104359964E-08
    0.12190952119880355669E-07
    0.11479495914411255452E-07
    0.22225130904809392721E-07
    0.28210892371597882553E-07
    0.39245158556513998801E-06
    0.82697662696936303440E-06
    0.18112968375870723823E-05
    0.27811045310250484189E-05
    0.16894971869181371718E-05
    0.23068430718362177643E-05
    0.10330486745847922450E-05
    0.58116406158262262447E-06
    0.22208076616434491914E-06
    0.14949228240901030987E-06
    0.28078916142086133198E-06
    0.18638844787364497020E-06
    0.61178906413724543045E-06
    0.77319953081449116316E-06
    0.19190305079267784773E-07
    0.40059392134102607725E-07
    0.85325493238670623933E-07
    0.14927477657680939914E-06
    0.98492471492526293321E-07
    0.15886319605753903492E-06
    0.71944541531168209597E-07
    0.37368895007933798543E-07
    0.16386065836757282357E-07
    0.14126951593665756096E-07
    0.17417835719777484549E-07
    0.14643599220751549435E-07
    0.32760197144474197937E-07
    0.43554827162094170252E-07
    0.50591399432965520872E-06
    0.11376645306400723107E-05
    0.24016556532831137556E-05
    0.39503775567157553499E-05
    0.26889834913422859537E-05
    0.41249939285784602885E-05
    0.19915522347911019523E-05
    0.10483448075376526772E-05
    0.41904469276801890714E-06
    0.26244284514506318992E-06
    0.43738269061029463036E-06
    0.26019765237858123672E-06
    0.94590492313804983740E-06
    0.12466449983180987994E-05
    0.90358521371562569119E-05
    0.17241623145073447723E-04
    0.34933590109792383234E-04
    0.49822545628860335804E-04
    0.31476182482021140298E-04
    0.40141717162205869604E-04
    0.19428813223351575019E-04
    0.11909168764588388078E-04
    0.50137449869079052703E-05
    0.35991708951621006905E-05
    0.64468327589668485936E-05
    0.45776657205440411891E-05
    0.12990337394031268084E-04
    0.15763363267414895772E-04
    0.14153165461993765396E-03
    0.24438554611916314197E-03
    0.45736053239438804107E-03
    0.60672901996407821272E-03
    0.39860377028494691637E-03
    0.47488098621840230638E-03
    0.24817047466673482258E-03
    0.16593373415884761870E-03
    0.77035949762150582494E-04
    0.59106141156958950998E-04
    0.10085056148301122046E-03
    0.76717699004249980668E-04
    0.18716008480616858826E-03