# vtk DataFile Version 3.0
LAPLACIEN  2D
ASCII
DATASET UNSTRUCTURED_GRID
 POINTS        1857  float
   3.1250000000000000E-002  0.93750000000000000        0.0000000000000000     
   6.2500000000000000E-002  0.93750000000000000        0.0000000000000000     
   6.2500000000000000E-002  0.96875000000000000        0.0000000000000000     
   1.8749999999999999E-002  0.95625000000000004        0.0000000000000000     
   4.0625000000000001E-002  0.95937499999999998        0.0000000000000000     
   4.3749999999999997E-002  0.98124999999999996        0.0000000000000000     
   2.1874999999999999E-002  0.97812500000000002        0.0000000000000000     
   9.3750000000000000E-002  0.93750000000000000        0.0000000000000000     
  0.12500000000000000       0.93750000000000000        0.0000000000000000     
  0.12500000000000000       0.96875000000000000        0.0000000000000000     
   8.1250000000000003E-002  0.95625000000000004        0.0000000000000000     
  0.10312499999999999       0.95937499999999998        0.0000000000000000     
  0.10625000000000000       0.98124999999999996        0.0000000000000000     
   8.4375000000000006E-002  0.97812500000000002        0.0000000000000000     
   3.1250000000000000E-002  0.87500000000000000        0.0000000000000000     
   6.2500000000000000E-002  0.87500000000000000        0.0000000000000000     
   6.2500000000000000E-002  0.90625000000000000        0.0000000000000000     
   1.8749999999999999E-002  0.89375000000000004        0.0000000000000000     
   4.0625000000000001E-002  0.89687499999999998        0.0000000000000000     
   4.3749999999999997E-002  0.91874999999999996        0.0000000000000000     
   2.1874999999999999E-002  0.91562500000000002        0.0000000000000000     
   9.3750000000000000E-002  0.87500000000000000        0.0000000000000000     
  0.12500000000000000       0.87500000000000000        0.0000000000000000     
  0.12500000000000000       0.90625000000000000        0.0000000000000000     
   8.1250000000000003E-002  0.89375000000000004        0.0000000000000000     
  0.10312499999999999       0.89687499999999998        0.0000000000000000     
  0.10625000000000000       0.91874999999999996        0.0000000000000000     
   8.4375000000000006E-002  0.91562500000000002        0.0000000000000000     
  0.15625000000000000       0.93750000000000000        0.0000000000000000     
  0.18750000000000000       0.93750000000000000        0.0000000000000000     
  0.18750000000000000       0.96875000000000000        0.0000000000000000     
  0.14374999999999999       0.95625000000000004        0.0000000000000000     
  0.16562499999999999       0.95937499999999998        0.0000000000000000     
  0.16875000000000001       0.98124999999999996        0.0000000000000000     
  0.14687500000000001       0.97812500000000002        0.0000000000000000     
  0.21875000000000000       0.93750000000000000        0.0000000000000000     
  0.25000000000000000       0.93750000000000000        0.0000000000000000     
  0.25000000000000000       0.96875000000000000        0.0000000000000000     
  0.20624999999999999       0.95625000000000004        0.0000000000000000     
  0.22812499999999999       0.95937499999999998        0.0000000000000000     
  0.23125000000000001       0.98124999999999996        0.0000000000000000     
  0.20937500000000001       0.97812500000000002        0.0000000000000000     
  0.15625000000000000       0.87500000000000000        0.0000000000000000     
  0.18750000000000000       0.87500000000000000        0.0000000000000000     
  0.18750000000000000       0.90625000000000000        0.0000000000000000     
  0.14374999999999999       0.89375000000000004        0.0000000000000000     
  0.16562499999999999       0.89687499999999998        0.0000000000000000     
  0.16875000000000001       0.91874999999999996        0.0000000000000000     
  0.14687500000000001       0.91562500000000002        0.0000000000000000     
  0.21875000000000000       0.87500000000000000        0.0000000000000000     
  0.25000000000000000       0.87500000000000000        0.0000000000000000     
  0.25000000000000000       0.90625000000000000        0.0000000000000000     
  0.20624999999999999       0.89375000000000004        0.0000000000000000     
  0.22812499999999999       0.89687499999999998        0.0000000000000000     
  0.23125000000000001       0.91874999999999996        0.0000000000000000     
  0.20937500000000001       0.91562500000000002        0.0000000000000000     
   3.1250000000000000E-002  0.81250000000000000        0.0000000000000000     
   6.2500000000000000E-002  0.81250000000000000        0.0000000000000000     
   6.2500000000000000E-002  0.84375000000000000        0.0000000000000000     
   1.8749999999999999E-002  0.83125000000000004        0.0000000000000000     
   4.0625000000000001E-002  0.83437499999999998        0.0000000000000000     
   4.3749999999999997E-002  0.85624999999999996        0.0000000000000000     
   2.1874999999999999E-002  0.85312500000000002        0.0000000000000000     
   9.3750000000000000E-002  0.81250000000000000        0.0000000000000000     
  0.12500000000000000       0.81250000000000000        0.0000000000000000     
  0.12500000000000000       0.84375000000000000        0.0000000000000000     
   8.1250000000000003E-002  0.83125000000000004        0.0000000000000000     
  0.10312499999999999       0.83437499999999998        0.0000000000000000     
  0.10625000000000000       0.85624999999999996        0.0000000000000000     
   8.4375000000000006E-002  0.85312500000000002        0.0000000000000000     
   3.1250000000000000E-002  0.75000000000000000        0.0000000000000000     
   6.2500000000000000E-002  0.75000000000000000        0.0000000000000000     
   6.2500000000000000E-002  0.78125000000000000        0.0000000000000000     
   1.8749999999999999E-002  0.76875000000000004        0.0000000000000000     
   4.0625000000000001E-002  0.77187499999999998        0.0000000000000000     
   4.3749999999999997E-002  0.79374999999999996        0.0000000000000000     
   2.1874999999999999E-002  0.79062500000000002        0.0000000000000000     
   9.3750000000000000E-002  0.75000000000000000        0.0000000000000000     
  0.12500000000000000       0.75000000000000000        0.0000000000000000     
  0.12500000000000000       0.78125000000000000        0.0000000000000000     
   8.1250000000000003E-002  0.76875000000000004        0.0000000000000000     
  0.10312499999999999       0.77187499999999998        0.0000000000000000     
  0.10625000000000000       0.79374999999999996        0.0000000000000000     
   8.4375000000000006E-002  0.79062500000000002        0.0000000000000000     
  0.15625000000000000       0.81250000000000000        0.0000000000000000     
  0.18750000000000000       0.81250000000000000        0.0000000000000000     
  0.18750000000000000       0.84375000000000000        0.0000000000000000     
  0.14374999999999999       0.83125000000000004        0.0000000000000000     
  0.16562499999999999       0.83437499999999998        0.0000000000000000     
  0.16875000000000001       0.85624999999999996        0.0000000000000000     
  0.14687500000000001       0.85312500000000002        0.0000000000000000     
  0.21875000000000000       0.81250000000000000        0.0000000000000000     
  0.25000000000000000       0.81250000000000000        0.0000000000000000     
  0.25000000000000000       0.84375000000000000        0.0000000000000000     
  0.20624999999999999       0.83125000000000004        0.0000000000000000     
  0.22812499999999999       0.83437499999999998        0.0000000000000000     
  0.23125000000000001       0.85624999999999996        0.0000000000000000     
  0.20937500000000001       0.85312500000000002        0.0000000000000000     
  0.15625000000000000       0.75000000000000000        0.0000000000000000     
  0.18750000000000000       0.75000000000000000        0.0000000000000000     
  0.18750000000000000       0.78125000000000000        0.0000000000000000     
  0.14374999999999999       0.76875000000000004        0.0000000000000000     
  0.16562499999999999       0.77187499999999998        0.0000000000000000     
  0.16875000000000001       0.79374999999999996        0.0000000000000000     
  0.14687500000000001       0.79062500000000002        0.0000000000000000     
  0.21875000000000000       0.75000000000000000        0.0000000000000000     
  0.25000000000000000       0.75000000000000000        0.0000000000000000     
  0.25000000000000000       0.78125000000000000        0.0000000000000000     
  0.20624999999999999       0.76875000000000004        0.0000000000000000     
  0.22812499999999999       0.77187499999999998        0.0000000000000000     
  0.23125000000000001       0.79374999999999996        0.0000000000000000     
  0.20937500000000001       0.79062500000000002        0.0000000000000000     
  0.28125000000000000       0.93750000000000000        0.0000000000000000     
  0.31250000000000000       0.93750000000000000        0.0000000000000000     
  0.31250000000000000       0.96875000000000000        0.0000000000000000     
  0.26874999999999999       0.95625000000000004        0.0000000000000000     
  0.29062500000000002       0.95937499999999998        0.0000000000000000     
  0.29375000000000001       0.98124999999999996        0.0000000000000000     
  0.27187499999999998       0.97812500000000002        0.0000000000000000     
  0.34375000000000000       0.93750000000000000        0.0000000000000000     
  0.37500000000000000       0.93750000000000000        0.0000000000000000     
  0.37500000000000000       0.96875000000000000        0.0000000000000000     
  0.33124999999999999       0.95625000000000004        0.0000000000000000     
  0.35312500000000002       0.95937499999999998        0.0000000000000000     
  0.35625000000000001       0.98124999999999996        0.0000000000000000     
[...]
 CELL_DATA        3584
 SCALARS VEGF float
 LOOKUP_TABLE default
    0.45056068027136945524E-08
    0.51532893590451698461E-08
    0.39591810884732959741E-08
    0.40709813837879808503E-08
    0.52109292810569478263E-08
    0.43732778182610812978E-08
    0.55933424402989217257E-08
    0.47077177197061611794E-08
    0.46900275732574251715E-08
    0.48737465397690709644E-08
    0.46851739989878769986E-08
    0.53441592579822152063E-08
    0.49138170534629244111E-08
    0.49421069163039894549E-08
    0.37468424820288963466E-08
    0.44937937775607340546E-08
    0.46845920610093811287E-08
    0.49811274000732296189E-08
    0.50851276781566414472E-08
    0.43705746097351522729E-08
    0.51557710111989193263E-08
    0.41531179358191468576E-08
    0.49618881489167316577E-08
    0.43895291644489903249E-08
    0.46921936286633364577E-08
    0.38530728777681064623E-08
    0.41416987313045393126E-08
    0.41063647236719364324E-08
    0.45453139673062888133E-08
    0.50829816413358884419E-08
    0.49312571946385127706E-08
    0.48621842510650735854E-08
    0.45193437760775762410E-08
    0.36468718613358663470E-08
    0.39625599352412739373E-08
    0.47031945579331302299E-08
    0.42780732836854238352E-08
    0.51696122871780335981E-08
    0.41971450872496719990E-08
    0.49587930048430673379E-08
    0.41365645555098536126E-08
    0.41996378121182769424E-08
    0.99325394991856729010E-08
    0.12479658096426131539E-07
    0.23099918095022675999E-07
    0.23212576143947086535E-07
    0.12439225555416801850E-07
    0.97706852171591578926E-08
    0.56736189866943144876E-08
    0.56029759225829062493E-08
    0.37569619057258306471E-08
    0.39178368626202880050E-08
    0.56021704922405512573E-08
    0.56345103431046777552E-08
    0.72550617369698565369E-08
    0.72653180604988448481E-08
    0.94591314177516460696E-08
    0.10950507054343871935E-07
    0.18069008855365680629E-07
    0.16703830699501007450E-07
    0.10602389199774920413E-07
    0.85477380567800089416E-08
    0.74918191984053335443E-08
    0.58623753365579861812E-08
    0.55764808755497347532E-08
    0.47746917064485163229E-08
    0.62364803750977935016E-08
    0.57661520655012031923E-08
    0.72871908071839707547E-08
    0.71457503911452083351E-08
    0.45690437340522681157E-07
    0.46460090412867359708E-07
    0.83946157399378870043E-07
    0.70384960182241764175E-07
    0.37101484443775653398E-07
    0.27287595887198173456E-07
    0.19272853069408926425E-07
    0.16045953365936231134E-07
    0.11391027499790375615E-07
    0.10259293874619444018E-07
    0.17954408405729245807E-07
    0.21739552653417683930E-07
    0.25636891751271781202E-07
    0.24019350515854755200E-07
    0.73251251819129692645E-07
    0.86056645022163844854E-07
    0.16817176393974540759E-06
    0.15732264508354206015E-06
    0.77567317641526178352E-07
    0.56320506460969749207E-07
    0.26306319857794355152E-07
    0.25564486381756944537E-07
    0.12236931779553248767E-07
    0.12845981812372609109E-07
    0.27983350005204407567E-07
    0.32893668743695526555E-07
    0.46323592073257683344E-07
    0.44815091265095809358E-07
    0.46721490783948553818E-06
    0.49457869563322574094E-06
    0.91367838245351728884E-06
    0.79714602826931428993E-06
    0.39704326825286877897E-06
    0.26861756146482195520E-06
    0.12719335998192167168E-06
    0.13392336274064814070E-06
    0.64848707248317948765E-07
    0.72983152832905821996E-07
    0.16672005421120383787E-06
    0.21496837657439470413E-06
    0.26526695997221184281E-06
    0.24694039023164408051E-06
    0.87336818639746433638E-08
    0.10615057844368698819E-07
    0.16666949601996817409E-07
    0.18263497538624461772E-07
    0.11001174214909291611E-07
    0.93964113965686156117E-08
    0.59254622352646858612E-08
    0.62823563429299771666E-08
    0.46985942416728696725E-08
    0.58127451299973991688E-08
    0.59273497278554557272E-08
    0.73095267454557967456E-08
    0.71970374441834564006E-08
    0.73697300613678843884E-08
    0.56495292009427692848E-07
    0.77624828211993705380E-07
    0.15722425399261000854E-06
    0.16830255517430240888E-06
    0.86043629315428164518E-07
    0.73128248984862629258E-07
    0.32985955397328859148E-07
    0.28025974870406848507E-07
    0.12734394620767310739E-07
    0.12435838603913225533E-07
    0.25589838227976443647E-07
    0.26284529280173136464E-07
    0.44829788394423952788E-07
    0.46362571326545232010E-07
    0.27475929388701455300E-07
    0.37117303914042770666E-07
    0.70350718744995072190E-07
    0.84144073103778545234E-07
    0.46515987027372521757E-07
    0.45635367519291361685E-07
    0.21909169593641868587E-07
    0.18008083444597077080E-07
    0.10192076387461525877E-07
    0.11634278561542409220E-07
    0.16115751550198436886E-07
    0.19093824212030877788E-07
    0.24075258591262069556E-07
    0.25724784242898851589E-07
    0.26879487123652548124E-06
    0.39710412716872961586E-06
    0.79705030929365140989E-06
    0.91381262284357534247E-06
    0.49457124653980274939E-06
    0.46710003967808648490E-06
    0.21507194311682266511E-06
    0.16677133913795018507E-06
    0.72881658702460246041E-07
    0.65055384554241211620E-07
    0.13395400226414591791E-06
    0.12717504365943282734E-06
    0.24696011998640935079E-06
    0.26531178148369354556E-06
    0.52781729956179409282E-06
    0.66448510507572995450E-06
    0.12881103993109137430E-05
    0.12882269032375487794E-05
    0.66445485656558812884E-06
    0.52768097358418915420E-06
    0.24449778441654201162E-06
    0.22087304102886890621E-06
    0.10035963029472516813E-06
    0.10050987879959143808E-06
    0.22085706642217358709E-06
    0.24442367142436926691E-06
    0.38207635501522706187E-06
    0.38209028559252911704E-06
    0.36675528491059123646E-05
    0.41629941632470946484E-05
    0.75673077934654955898E-05
    0.70364493881450104423E-05
    0.36996348694879899504E-05
    0.27275502140886360397E-05
    0.13334383735054798106E-05
    0.13198739951078436647E-05
    0.64790733363135410895E-06
    0.69113860611656105668E-06
    0.14866683586462790284E-05
    0.17716922763835592317E-05
    0.23927910217988042929E-05
    0.23034653470723237244E-05
    0.27276883230665266494E-05
    0.36996674937908734445E-05
    0.70363333474524831219E-05
    0.75674257297359939279E-05
    0.41629687821306178168E-05
    0.36674244632489333912E-05
    0.17717776568399061920E-05
    0.14866929967525490647E-05
    0.69099874339808242992E-06
    0.64806568011933233587E-06
    0.13198632835737968065E-05
    0.13333675890376163859E-05
    0.23034561028821270600E-05
    0.23928104968614800964E-05
    0.20565288707983844085E-04
    0.25307895964343325907E-04
    0.45324802450318224685E-04
    0.45324925317641060547E-04
    0.25307872274747966079E-04
    0.20565166031480719330E-04
    0.10476760956544164922E-04
    0.96543627045996828847E-05
    0.48484072984696120412E-05
    0.48485550530081568762E-05
    0.96543422601167182056E-05
    0.10476676013582537716E-04
    0.15696703002024235815E-04
    0.15696718514569741492E-04
    0.19051901361448892663E-06
    0.17366483550175611022E-06
    0.30082979418881494156E-06
    0.23535122850403601535E-06
    0.12096909871253672902E-06
    0.82767470977508737962E-07
    0.56772843674457615291E-07
    0.51633263635354752717E-07
    0.34024165213494340478E-07
    0.33098333565316816645E-07
    0.64547161614345244890E-07
    0.89652236534767392414E-07
    0.91972905170845379388E-07
    0.82716813689173913712E-07
    0.57915203537525197191E-06
    0.47893738032493110083E-06
    0.77332718633259607609E-06
    0.57022995721742149342E-06
    0.29710479551157932275E-06
    0.19150485470448182164E-06
    0.13630724918502974906E-06
    0.13494923290467800684E-06
    0.93017137776363518443E-07
    0.96542838825950562851E-07
    0.18920725408380917504E-06
    0.28385970173794085027E-06
    0.25273405113614857350E-06
    0.21943636782464463714E-06
    0.21261794939917444085E-05
    0.20279072380791695143E-05
    0.34853171077607340724E-05
    0.28472682717630195935E-05
    0.14512769963546617656E-05
    0.92056661396559483506E-06
    0.45872334541246150753E-06
    0.52787593719955568620E-06
    0.27581612457405975791E-06
    0.33107974689680561153E-06
    0.74108967183376480986E-06
    0.10261056144247927863E-05
    0.10918812792114698631E-05
    0.98021309610933355184E-06
    0.67569622038842465595E-05
    0.58325132088591388584E-05
    0.92658683203162422337E-05
    0.71269911825299123894E-05
    0.37315429636797505802E-05
    0.22316211909161041925E-05
    0.11789297573550799184E-05
    0.14800990586004358181E-05
    0.84372046578087563074E-06
    0.10752152299800501213E-05
    0.23327052357465800887E-05
    0.34424287738149180548E-05
    0.31618735849733781357E-05
    0.27427906440669725311E-05
    0.12538217940390302554E-05
    0.94706439879229146166E-06
    0.14126023919727596633E-05
    0.98644709346644541227E-06
    0.52642119796676949750E-06
    0.32161157758503669239E-06
    0.24176694265242019086E-06
    0.25971627161940853735E-06
    0.19337001632364067034E-06
    0.21236083448471154504E-06
    0.40695964003051171853E-06
    0.64790351842486413071E-06
    0.50252688899266128499E-06
    0.42233143775160554906E-06
    0.19272581897049262387E-05
    0.13362080242464919916E-05
    0.18305966934225799351E-05
    0.12140580682338982881E-05
    0.66654996444445637028E-06
    0.38737174349699640007E-06
    0.30939608536300998911E-06
    0.36013998912662359782E-06
    0.29219821022369536737E-06
    0.33822506768225076495E-06
    0.62893049119724971582E-06
    0.10552685748724992189E-05
    0.71508282298605020583E-06
    0.58245964973473171738E-06
    0.15000769847660192736E-04
    0.11792904426498554228E-04
    0.17243931762971799205E-04
    0.12543546596731550480E-04
    0.67606082672343254572E-05
    0.38271856945990839088E-05
    0.21494401925145651211E-05
    0.29376162500916243138E-05
    0.18325185191543886705E-05
    0.24703730132230385276E-05
    0.51788614196209806052E-05
    0.80983650129273909300E-05
    0.64487309674043150596E-05
    0.54142017582792824326E-05
    0.23369780799711137282E-04
    0.16819020474795178200E-04
    0.22534134084518869865E-04
    0.15543924547653652522E-04
    0.86418731873732565480E-05
    0.46429111209380734729E-05
    0.27788471602461519562E-05
    0.41291602364861236036E-05
    0.28237284752679879043E-05
    0.40167609873992196086E-05
    0.81265514675460275750E-05
    0.13410365053094554854E-04
    0.92878631848704024907E-05
    0.75541156246611822160E-05
    0.17961608880892590751E-04
    0.18243774473606900560E-04
    0.30800674844410065958E-04
    0.26619715961738436594E-04
    0.14319795358357670663E-04
    0.98214605622103121285E-05
    0.50938033799075228722E-05
    0.55450702747327843193E-05
    0.29692276719249167682E-05
    0.33837996113616183472E-05
    0.70807591994064419274E-05
    0.91023151942464339975E-05
    0.10488008540055353030E-04
    0.97103504048438873887E-05
    0.60286088933125056707E-04
    0.54881581702162647010E-04
    0.85358423675974245872E-04
    0.69051553001798894149E-04
    0.38162792772480845743E-04
    0.24531243815660900930E-04
    0.13535306555972784291E-04
    0.16158669972108268491E-04
    0.94828815935646261454E-05
    0.11520215319474489673E-04
    0.23356203858104464054E-04
    0.32269709575442124172E-04
    0.31677896970373859375E-04
    0.28259305726752577360E-04
    0.11139621729915276762E-03
    0.12214187358793022033E-03
    0.20372663626252174849E-03
    0.18740889862109327336E-03
    0.10649100623590172223E-03
    0.79400304461657916972E-04
    0.42900884391556284815E-04
    0.43844513244026348930E-04
    0.23998903868363452466E-04
    0.25771622837520502194E-04
    0.50210159786088334104E-04
    0.59214539423092035916E-04
    0.75186484121744030697E-04
    0.72030052719226323149E-04
    0.40763429845429484128E-03
    0.39356996815069451379E-03
    0.60001859646189009256E-03
    0.51149537495410828374E-03
    0.29875539505541296543E-03
    0.20667807778773690671E-03
    0.11915354783945201469E-03
    0.13486062793424452490E-03
    0.81239383512489031546E-04
    0.93800527926743272156E-04
    0.17777896816795500439E-03
    0.22875372032920697788E-03
    0.24209703194474541566E-03
    0.22226677484571492329E-03
    0.13804070302580304552E-03
    0.11376214874500605772E-03
    0.16233198112985977135E-03
    0.12385411669512918337E-03
    0.70539827326998084684E-04
    0.42767832490685225725E-04
    0.25147667347697337704E-04
    0.32791262564834713618E-04
    0.21122971063401573016E-04
    0.27226020253857666144E-04
    0.53306706314247087695E-04
    0.78496518100109244072E-04
    0.66184934484578791000E-04
    0.57051440264184754994E-04
    0.21835267215600473673E-03
    0.16416939681802839414E-03
    0.21408007538768126956E-03
    0.15460308439010667526E-03
    0.90979065268469730627E-04
    0.52207535362238451267E-04
    0.32790874621592953453E-04
    0.46612748891142235163E-04
    0.32992873689447048153E-04
    0.44959599490434291858E-04
    0.84869048240739965172E-04
    0.13235273660838935204E-03
    0.96468322395644657457E-04
    0.80476023582038347035E-04
    0.96702604297843196453E-03
    0.83783351451903313213E-03
    0.11613700953302633252E-02
    0.93336425087948613442E-03
    0.56420365498321143130E-03
    0.36713972406385335856E-03
    0.22636889974497249487E-03
    0.28117972177987864872E-03
    0.18689458280001658300E-03
    0.23016088436903883491E-03
    0.42061743562290317567E-03
    0.58162327882058583936E-03
    0.52059803862521353366E-03
    0.46092660353609838817E-03
    0.15406510167109874979E-02
    0.12176573110382021663E-02
    0.15366699640871051263E-02
    0.11701000875624406779E-02
    0.73336043071165000606E-03
    0.45094693547488340401E-03
    0.29790468556332506175E-03
    0.40443338671500961940E-03
    0.29641556829920816208E-03
    0.38661977320996799602E-03
    0.67894187910636633315E-03
    0.99576052172365672917E-03
    0.76673024210867162485E-03
    0.65688110831599094350E-03
    0.82956233733269543583E-07
    0.12098549628870283584E-06
    0.23531745267513389775E-06
    0.30102831229545240513E-06
    0.17372172147502745138E-06
    0.19046541848198955293E-06
    0.89823918897460872956E-07
    0.64602405504046633999E-07
    0.33032975152436797897E-07
    0.34268844870211928329E-07
    0.51704004339916967630E-07
    0.56594424782032002745E-07
    0.82773608436042004459E-07
    0.92061833660610892417E-07
    0.92074426743616383198E-06
    0.14513382266124509262E-05
    0.28471724814093600622E-05
    0.34854510048241377078E-05
    0.20279003491079763613E-05
    0.21260655991142165717E-05
    0.10262111678837977509E-05
    0.74114249778072253269E-06
    0.33098018756389106822E-06
    0.27602427644698633305E-06
    0.52790750216165534936E-06
    0.45870561846212693079E-06
    0.98023360208825583047E-06
    0.10919269983502385684E-05
    0.19169368855789287962E-06
    0.29712129922809051783E-06
    0.57019629207571029929E-06
    0.77352582943391293212E-06
    0.47899444340950384860E-06
    0.57909868125019825676E-06
    0.28403174449493734842E-06
    0.18926277194801217383E-06
    0.96477805570537947113E-07
    0.93262059481047276193E-07
    0.13502013174859069815E-06
    0.13612892822048806718E-06
    0.21949331602855334858E-06
    0.25282316025409816950E-06
    0.22317989272647367450E-05
    0.37316041523849800841E-05
    0.71268949716240337104E-05
    0.92660007754944375313E-05
    0.58325056492306946241E-05
    0.67568469304296354709E-05
    0.34425340792642659441E-05
    0.23327580942232361221E-05
    0.10751159131467699571E-05
    0.84392883565468592265E-06
    0.14801307531460421235E-05
    0.11789121466061529391E-05
    0.27428111608698808738E-05
    0.31619192236992241300E-05
    0.98215948836346363468E-05
    0.14319820594059558751E-04
    0.26619581965470429991E-04
    0.30800769145219807727E-04
    0.18243738883735217016E-04
    0.17961472218232344225E-04
    0.91023989939996474593E-05
    0.70807825492513461700E-05
    0.33836606188103885788E-05
    0.29693866087670205406E-05
    0.55450583923661320171E-05
    0.50937314490970903908E-05
    0.97103374162053243928E-05
    0.10488023878977845971E-04
    0.79400331962703764028E-04
    0.10649089516706276815E-03
    0.18740848730764843549E-03
    0.20372649289986921573E-03
    0.12214173843868840626E-03
    0.11139605065715163902E-03
    0.59214607596731980176E-04
    0.50210152568933597039E-04
    0.25771463996090316500E-04
    0.23999038706177692809E-04
    0.43844457203619238640E-04
    0.42900760204952901244E-04
    0.72029969756556562303E-04
    0.75186436613529830501E-04
    0.24531370254108317058E-04
    0.38162798074763594621E-04
    0.69051370673727904457E-04
    0.85358435522161444373E-04
    0.54881501157332889353E-04
    0.60285892423390749918E-04
    0.32269769565686558536E-04
    0.23356214061797199634E-04
    0.11520071764448202927E-04
    0.94830377552421331972E-05
    0.16158652408532034230E-04
    0.13535231394376561815E-04
    0.28259278641337425448E-04
    0.31677893755299080432E-04
    0.20667779322550860642E-03
    0.29875466070207717505E-03
    0.51149363499496743220E-03
    0.60001658761327171694E-03
    0.39356882436568678060E-03
    0.40763313068625393800E-03
    0.22875336060035016800E-03
    0.17777864926507341761E-03
    0.93800245322900208068E-04
    0.81239421819331579283E-04
    0.13486037168465947011E-03
    0.11915327826963174559E-03
    0.22226626998549743521E-03
    0.24209649229926265604E-03
    0.32180043649010102191E-06
    0.52643775447537564208E-06
    0.98641352524854003888E-06
    0.14128011549660705130E-05
    0.94712156392820822269E-06
    0.12537685638352917586E-05
    0.64807566882440660532E-06
    0.40701522641624892561E-06
    0.21229585645162085909E-06
    0.19361497996035436865E-06
    0.25978721090921794016E-06
    0.24158864801057113055E-06
    0.42238843977413317686E-06
    0.50261606472441285741E-06
    0.38273636939385272137E-05
    0.67606697774980158532E-05
    0.12543450795681768955E-04
    0.17244063546961641058E-04
    0.11792896546916628730E-04
    0.15000652958164924133E-04
    0.80984699552314373650E-05
    0.51789143502042512429E-05
    0.24702738022278111306E-05
    0.18327270172346614842E-05
    0.29376481347265742261E-05
    0.21494227427605142822E-05
    0.54142225055235455384E-05
    0.64487767473932558222E-05
    0.38756063209626638022E-06
    0.66656658196510860344E-06
    0.12140246377769238716E-05
    0.18307956993587367417E-05
    0.13362653391146206775E-05
    0.19272051545102833596E-05
    0.10554408288862297864E-05
    0.62898613303038669584E-06
    0.33816011344406860795E-06
    0.29244319163171433803E-06
    0.36021095133790815353E-06
    0.30921781251287380693E-06
    0.58251669972836494908E-06
    0.71517206365389422520E-06
    0.46430900683559931606E-05
    0.86419366413308024074E-05
    0.15543833247606055623E-04
    0.22534272453401536280E-04
    0.16819015590399267871E-04
    0.23369665970102103110E-04
    0.13410470927422226301E-04
    0.81266052250690527120E-05
    0.40166621147600702069E-05
    0.28239372542056435177E-05
    0.41291926982429101811E-05
    0.27788301394541372805E-05
    0.75541375969500201097E-05
    0.92879103777997340941E-05
    0.42767954763642989291E-04
    0.70539815175036681399E-04
    0.12385389668559602223E-03
    0.16233190550465475275E-03
    0.11376200291499005321E-03
    0.13804038569598301822E-03
    0.78496525415654210206E-04
    0.53306692936641972725E-04
    0.27225868695540137793E-04
    0.21123123444543477682E-04
    0.32791238506602663199E-04
    0.25147589997015539279E-04
    0.57051395723211591009E-04
    0.66184904961553449841E-04
    0.36713922176114405791E-03
    0.56420234285588764540E-03
    0.93336154399225083281E-03
    0.11613661808659472667E-02
    0.83783066141593560451E-03
    0.96702196622764160800E-03
    0.58162143420771280147E-03
    0.42061632573579929486E-03
    0.23016026978843066907E-03
    0.18689441876701236235E-03
    0.28117916259343876629E-03
    0.22636847960813167723E-03
    0.46092547106926768210E-03