# vtk DataFile Version 3.0
LAPLACIEN  2D
ASCII
DATASET UNSTRUCTURED_GRID
 POINTS        1857  float
   3.1250000000000000E-002  0.93750000000000000        0.0000000000000000     
   6.2500000000000000E-002  0.93750000000000000        0.0000000000000000     
   6.2500000000000000E-002  0.96875000000000000        0.0000000000000000     
   1.8749999999999999E-002  0.95625000000000004        0.0000000000000000     
   4.0625000000000001E-002  0.95937499999999998        0.0000000000000000     
   4.3749999999999997E-002  0.98124999999999996        0.0000000000000000     
   2.1874999999999999E-002  0.97812500000000002        0.0000000000000000     
   9.3750000000000000E-002  0.93750000000000000        0.0000000000000000     
  0.12500000000000000       0.93750000000000000        0.0000000000000000     
  0.12500000000000000       0.96875000000000000        0.0000000000000000     
   8.1250000000000003E-002  0.95625000000000004        0.0000000000000000     
  0.10312499999999999       0.95937499999999998        0.0000000000000000     
  0.10625000000000000       0.98124999999999996        0.0000000000000000     
   8.4375000000000006E-002  0.97812500000000002        0.0000000000000000     
   3.1250000000000000E-002  0.87500000000000000        0.0000000000000000     
   6.2500000000000000E-002  0.87500000000000000        0.0000000000000000     
   6.2500000000000000E-002  0.90625000000000000        0.0000000000000000     
   1.8749999999999999E-002  0.89375000000000004        0.0000000000000000     
   4.0625000000000001E-002  0.89687499999999998        0.0000000000000000     
   4.3749999999999997E-002  0.91874999999999996        0.0000000000000000     
   2.1874999999999999E-002  0.91562500000000002        0.0000000000000000     
   9.3750000000000000E-002  0.87500000000000000        0.0000000000000000     
  0.12500000000000000       0.87500000000000000        0.0000000000000000     
  0.12500000000000000       0.90625000000000000        0.0000000000000000     
   8.1250000000000003E-002  0.89375000000000004        0.0000000000000000     
  0.10312499999999999       0.89687499999999998        0.0000000000000000     
  0.10625000000000000       0.91874999999999996        0.0000000000000000     
   8.4375000000000006E-002  0.91562500000000002        0.0000000000000000     
  0.15625000000000000       0.93750000000000000        0.0000000000000000     
  0.18750000000000000       0.93750000000000000        0.0000000000000000     
  0.18750000000000000       0.96875000000000000        0.0000000000000000     
  0.14374999999999999       0.95625000000000004        0.0000000000000000     
  0.16562499999999999       0.95937499999999998        0.0000000000000000     
  0.16875000000000001       0.98124999999999996        0.0000000000000000     
  0.14687500000000001       0.97812500000000002        0.0000000000000000     
  0.21875000000000000       0.93750000000000000        0.0000000000000000     
  0.25000000000000000       0.93750000000000000        0.0000000000000000     
  0.25000000000000000       0.96875000000000000        0.0000000000000000     
  0.20624999999999999       0.95625000000000004        0.0000000000000000     
  0.22812499999999999       0.95937499999999998        0.0000000000000000     
  0.23125000000000001       0.98124999999999996        0.0000000000000000     
  0.20937500000000001       0.97812500000000002        0.0000000000000000     
  0.15625000000000000       0.87500000000000000        0.0000000000000000     
  0.18750000000000000       0.87500000000000000        0.0000000000000000     
  0.18750000000000000       0.90625000000000000        0.0000000000000000     
  0.14374999999999999       0.89375000000000004        0.0000000000000000     
  0.16562499999999999       0.89687499999999998        0.0000000000000000     
  0.16875000000000001       0.91874999999999996        0.0000000000000000     
  0.14687500000000001       0.91562500000000002        0.0000000000000000     
  0.21875000000000000       0.87500000000000000        0.0000000000000000     
  0.25000000000000000       0.87500000000000000        0.0000000000000000     
  0.25000000000000000       0.90625000000000000        0.0000000000000000     
  0.20624999999999999       0.89375000000000004        0.0000000000000000     
  0.22812499999999999       0.89687499999999998        0.0000000000000000     
  0.23125000000000001       0.91874999999999996        0.0000000000000000     
  0.20937500000000001       0.91562500000000002        0.0000000000000000     
   3.1250000000000000E-002  0.81250000000000000        0.0000000000000000     
   6.2500000000000000E-002  0.81250000000000000        0.0000000000000000     
   6.2500000000000000E-002  0.84375000000000000        0.0000000000000000     
   1.8749999999999999E-002  0.83125000000000004        0.0000000000000000     
   4.0625000000000001E-002  0.83437499999999998        0.0000000000000000     
   4.3749999999999997E-002  0.85624999999999996        0.0000000000000000     
   2.1874999999999999E-002  0.85312500000000002        0.0000000000000000     
   9.3750000000000000E-002  0.81250000000000000        0.0000000000000000     
  0.12500000000000000       0.81250000000000000        0.0000000000000000     
  0.12500000000000000       0.84375000000000000        0.0000000000000000     
   8.1250000000000003E-002  0.83125000000000004        0.0000000000000000     
  0.10312499999999999       0.83437499999999998        0.0000000000000000     
  0.10625000000000000       0.85624999999999996        0.0000000000000000     
   8.4375000000000006E-002  0.85312500000000002        0.0000000000000000     
   3.1250000000000000E-002  0.75000000000000000        0.0000000000000000     
   6.2500000000000000E-002  0.75000000000000000        0.0000000000000000     
   6.2500000000000000E-002  0.78125000000000000        0.0000000000000000     
   1.8749999999999999E-002  0.76875000000000004        0.0000000000000000     
   4.0625000000000001E-002  0.77187499999999998        0.0000000000000000     
   4.3749999999999997E-002  0.79374999999999996        0.0000000000000000     
   2.1874999999999999E-002  0.79062500000000002        0.0000000000000000     
   9.3750000000000000E-002  0.75000000000000000        0.0000000000000000     
  0.12500000000000000       0.75000000000000000        0.0000000000000000     
  0.12500000000000000       0.78125000000000000        0.0000000000000000     
   8.1250000000000003E-002  0.76875000000000004        0.0000000000000000     
  0.10312499999999999       0.77187499999999998        0.0000000000000000     
  0.10625000000000000       0.79374999999999996        0.0000000000000000     
   8.4375000000000006E-002  0.79062500000000002        0.0000000000000000     
  0.15625000000000000       0.81250000000000000        0.0000000000000000     
  0.18750000000000000       0.81250000000000000        0.0000000000000000     
  0.18750000000000000       0.84375000000000000        0.0000000000000000     
  0.14374999999999999       0.83125000000000004        0.0000000000000000     
  0.16562499999999999       0.83437499999999998        0.0000000000000000     
  0.16875000000000001       0.85624999999999996        0.0000000000000000     
  0.14687500000000001       0.85312500000000002        0.0000000000000000     
  0.21875000000000000       0.81250000000000000        0.0000000000000000     
  0.25000000000000000       0.81250000000000000        0.0000000000000000     
  0.25000000000000000       0.84375000000000000        0.0000000000000000     
  0.20624999999999999       0.83125000000000004        0.0000000000000000     
  0.22812499999999999       0.83437499999999998        0.0000000000000000     
  0.23125000000000001       0.85624999999999996        0.0000000000000000     
  0.20937500000000001       0.85312500000000002        0.0000000000000000     
  0.15625000000000000       0.75000000000000000        0.0000000000000000     
  0.18750000000000000       0.75000000000000000        0.0000000000000000     
  0.18750000000000000       0.78125000000000000        0.0000000000000000     
  0.14374999999999999       0.76875000000000004        0.0000000000000000     
  0.16562499999999999       0.77187499999999998        0.0000000000000000     
  0.16875000000000001       0.79374999999999996        0.0000000000000000     
  0.14687500000000001       0.79062500000000002        0.0000000000000000     
  0.21875000000000000       0.75000000000000000        0.0000000000000000     
  0.25000000000000000       0.75000000000000000        0.0000000000000000     
  0.25000000000000000       0.78125000000000000        0.0000000000000000     
  0.20624999999999999       0.76875000000000004        0.0000000000000000     
  0.22812499999999999       0.77187499999999998        0.0000000000000000     
  0.23125000000000001       0.79374999999999996        0.0000000000000000     
  0.20937500000000001       0.79062500000000002        0.0000000000000000     
  0.28125000000000000       0.93750000000000000        0.0000000000000000     
  0.31250000000000000       0.93750000000000000        0.0000000000000000     
  0.31250000000000000       0.96875000000000000        0.0000000000000000     
  0.26874999999999999       0.95625000000000004        0.0000000000000000     
  0.29062500000000002       0.95937499999999998        0.0000000000000000     
  0.29375000000000001       0.98124999999999996        0.0000000000000000     
  0.27187499999999998       0.97812500000000002        0.0000000000000000     
  0.34375000000000000       0.93750000000000000        0.0000000000000000     
  0.37500000000000000       0.93750000000000000        0.0000000000000000     
  0.37500000000000000       0.96875000000000000        0.0000000000000000     
  0.33124999999999999       0.95625000000000004        0.0000000000000000     
  0.35312500000000002       0.95937499999999998        0.0000000000000000     
  0.35625000000000001       0.98124999999999996        0.0000000000000000     
[...]
 CELL_DATA        3584
 SCALARS VEGF float
 LOOKUP_TABLE default
    0.11399417456889584353E-08
    0.17796970973128777985E-08
    0.47626353179744969406E-09
    0.60263251155844790653E-09
    0.18502608009687823790E-08
    0.10020130809097231110E-08
    0.23998636379314691374E-08
    0.13886001992493331847E-08
    0.14625312858164869774E-08
    0.16690766994559175807E-08
    0.13707456407068341702E-08
    0.21252898215738205447E-08
    0.14927954033524834440E-08
    0.15238606032742417714E-08
   -0.20857662100408539299E-09
    0.42418239547542846328E-09
   -0.46319834840837515556E-09
   -0.33723911150580440161E-10
    0.11151472757456766255E-08
    0.55077650480945054694E-09
    0.18057851678855245398E-08
    0.73392431627944282757E-09
    0.17065975890476589964E-08
    0.10227295515848260494E-08
    0.12344833130461808262E-08
    0.29328732476882168494E-09
    0.44130886220282192164E-09
    0.42407190068592065339E-09
    0.72152438566992085832E-09
    0.10920609137373973993E-08
   -0.10680672029757841672E-09
   -0.27797386711775046593E-09
    0.45660081186990137799E-09
   -0.30240840598328398842E-09
    0.41186649407974998270E-09
    0.12366332671473814107E-08
    0.89628398299519233382E-09
    0.19377924619435385873E-08
    0.77902040790148355630E-09
    0.15758179058332967004E-08
    0.44635303528009047948E-09
    0.49689863166864281695E-09
   -0.81303093248579865425E-09
   -0.50419215354005969640E-09
   -0.11596067273337497676E-08
   -0.10307133730753716661E-08
   -0.53012154752672521568E-09
   -0.95974676958199999787E-09
   -0.57002421710114962056E-09
   -0.24790310602414153878E-09
   -0.52557830700786219119E-09
   -0.33753390424644864210E-09
   -0.24376948653044053043E-09
   -0.62489361268803357367E-09
   -0.10881113038199112590E-08
   -0.10748283896405076811E-08
   -0.49254083264112453332E-09
    0.27188861395272876589E-09
   -0.53578423087955263147E-09
   -0.77708469575111509573E-10
    0.10546574495160740811E-08
    0.51541660159510677928E-09
    0.17440546044451792851E-08
    0.61110098359845580963E-09
    0.14875678456127463208E-08
    0.70162797788770557311E-09
    0.95434431003850505433E-09
   -0.15697250726945771137E-09
    0.28826599596283836073E-09
    0.30655647145513685894E-09
   -0.50643942176655562119E-09
    0.26554144498862515055E-09
   -0.53813797961364250813E-09
   -0.78956126527230399167E-10
    0.10526347541764727334E-08
    0.51436843975884110916E-09
    0.17418706595791366534E-08
    0.60562348716629321232E-09
    0.14753810500118279076E-08
    0.68041576295320192525E-09
    0.93871478191128409369E-09
   -0.18442565645601006969E-09
    0.28145821718245404664E-09
    0.30174578140313720474E-09
   -0.11307220366655549093E-08
   -0.67909738543989040608E-09
   -0.12403295586178880071E-08
   -0.10806068360559933679E-08
   -0.60297704735854337810E-09
   -0.10022841536532527459E-08
   -0.64538461732692459791E-09
   -0.40643432885979177179E-09
   -0.81975054605579827426E-09
   -0.78749251134147235271E-09
   -0.59789230311546689878E-09
   -0.11561126133702751273E-08
   -0.12756790006413755554E-08
   -0.12200039931645181056E-08
   -0.11458582412694770107E-08
   -0.68605058576586765301E-09
   -0.12428374474443723874E-08
   -0.10819413899325085524E-08
   -0.60522025158531085707E-09
   -0.10034363565010284062E-08
   -0.64780202742250430381E-09
   -0.41270522678243664185E-09
   -0.83391056593946345527E-09
   -0.81265592821132038998E-09
   -0.61580898261388915563E-09
   -0.11870468961993000878E-08
   -0.12833549213634094565E-08
   -0.12254267727262878931E-08
    0.68966346027016823237E-09
    0.10375677901594335255E-08
   -0.14604139472312621325E-09
   -0.34290620709304819921E-09
    0.31907374945778773189E-09
   -0.55989435566563986938E-09
    0.15632723742546184017E-11
    0.98077135938406515976E-09
    0.60003284411734845099E-09
    0.17364161696624689366E-08
    0.66692822363507128167E-09
    0.15197834352676346980E-08
    0.33978811571775227001E-09
    0.35802096951131989140E-09
   -0.85072818376180305858E-09
   -0.56918480243998797797E-09
   -0.12038471643571839050E-08
   -0.11028586554249912953E-08
   -0.68823348538394004295E-09
   -0.12494737625302625971E-08
   -0.10579640072857805391E-08
   -0.57085844037030550666E-09
   -0.93649522649374131021E-09
   -0.60450050630052583293E-09
   -0.38659585751277827755E-09
   -0.69223809452594700210E-09
   -0.12187952210658511456E-08
   -0.12443895356399168250E-08
    0.68876611507984955702E-09
    0.10358133119102816258E-08
   -0.14710295077626898815E-09
   -0.34492439215912549553E-09
    0.31353665327166620846E-09
   -0.57208015329986282848E-09
   -0.22802571724498252385E-10
    0.96689204190001768194E-09
    0.58101143906753712794E-09
    0.17255322149764861286E-08
    0.66207534375079514525E-09
    0.15178708751627088268E-08
    0.33556093341950833580E-09
    0.35202957280705097522E-09
   -0.85168805597216604160E-09
   -0.57108274195163542175E-09
   -0.12049573204496648910E-08
   -0.11049750388715822056E-08
   -0.69421154690674879602E-09
   -0.12626336447557397854E-08
   -0.10851908677244666677E-08
   -0.58650876774206222005E-09
   -0.95862780165630173824E-09
   -0.61687650788707673474E-09
   -0.39201329509735881649E-09
   -0.69430232127902871125E-09
   -0.12234504891995917704E-08
   -0.12510108542349050708E-08
   -0.11704024480799441916E-08
   -0.74610214035450444146E-09
   -0.12851780686370232650E-08
   -0.11533819263000328215E-08
   -0.76319686641580968241E-09
   -0.12942364901538367212E-08
   -0.11394400800610447827E-08
   -0.73905872031447764428E-09
   -0.12533404008004683237E-08
   -0.10765647992325192171E-08
   -0.75001430367633992315E-09
   -0.12289667381367985226E-08
   -0.14108933310721733343E-08
   -0.13941610013147460741E-08
   -0.11846864162301776563E-08
   -0.75161981196983324605E-09
   -0.12807497668787939732E-08
   -0.11494399111207243941E-08
   -0.76439688555294381804E-09
   -0.12950087216140315622E-08
   -0.11419243093345649310E-08
   -0.74557944164673235679E-09
   -0.12683698041343115396E-08
   -0.11029303357749854939E-08
   -0.76832579568111536072E-09
   -0.12601517160806588669E-08
   -0.14184272501502230137E-08
   -0.13994665519756409290E-08
   -0.11709625742367811812E-08
   -0.74693440015927340044E-09
   -0.12809991214889886202E-08
   -0.11485498048268979698E-08
   -0.76772450575227860249E-09
   -0.13065343637642020302E-08
   -0.11668928305517154916E-08
   -0.75503758055111568429E-09
   -0.12765000866216519735E-08
   -0.10896271255388930767E-08
   -0.75560238113170292633E-09
   -0.12310544628975119618E-08
   -0.14153907571561022695E-08
   -0.14006048785672046098E-08
   -0.10832404625854624571E-08
   -0.55869072153692304665E-09
   -0.48488662129922271196E-09
   -0.35295709345642361572E-09
   -0.57518294942906172516E-09
   -0.12053371142661699942E-08
   -0.11494752327992181680E-08
   -0.74676934197982676276E-09
   -0.12891508012637136894E-08
   -0.11136103901089875846E-08
   -0.75911841835739720273E-09
   -0.12423219693827499628E-08
   -0.13706748287695127894E-08
   -0.13536640199177244560E-08
   -0.50672119304852049513E-09
    0.26543009917464726362E-09
   -0.53817086213450536551E-09
   -0.78971967586999988923E-10
    0.10526060627653176992E-08
    0.51435444556116432949E-09
    0.17418357558006579616E-08
    0.60551826346810805391E-09
    0.14751104696910882746E-08
    0.67986475972557598161E-09
    0.93836453202258974346E-09
   -0.18510632566895658659E-09
    0.28133056907890228830E-09
    0.30166105782290771225E-09
   -0.50671790447057138050E-09
    0.26543137493906016336E-09
   -0.53816088024319453493E-09
   -0.78967183741846614104E-10
    0.10526051803462730882E-08
    0.51435345124825344040E-09
    0.17418342654555079388E-08
    0.60551644427931824788E-09
    0.14751087739883449885E-08
    0.67985977181834231264E-09
    0.93836145293028287504E-09
   -0.18511285515387280442E-09
    0.28132936235732665016E-09
    0.30165979078512444009E-09
   -0.11459455700547017352E-08
   -0.68597571770588292048E-09
   -0.12420491749178423665E-08
   -0.10815700041573353319E-08
   -0.60517393519541846567E-09
   -0.10034310091597696508E-08
   -0.64783340876945687651E-09
   -0.41280648557782112391E-09
   -0.83419665574277961379E-09
   -0.81325170233465025977E-09
   -0.61617184205198754568E-09
   -0.11877443817478478809E-08
   -0.12834519259922926271E-08
   -0.12254906692690984138E-08
   -0.11415035562176845702E-08
   -0.68313324184478642883E-09
   -0.12318349548890212331E-08
   -0.10775897802384871827E-08
   -0.60432862950100724352E-09
   -0.10032357790539572148E-08
   -0.64779394864968566774E-09
   -0.41273353066864895510E-09
   -0.83418173214593590826E-09
   -0.81322122035548920846E-09
   -0.61592178713868733271E-09
   -0.11869448982216906700E-08
   -0.12828740240119097807E-08
   -0.12251547141759011180E-08
   -0.50668419918274012297E-09
    0.26544533225549294808E-09
   -0.53811501362377972612E-09
   -0.78954847408492762986E-10
    0.10526084459966754499E-08
    0.51435493921625864308E-09
    0.17418352625409307518E-08
    0.60551753763067254880E-09
    0.14751081961177251247E-08
    0.67985918631196331030E-09
    0.93836241418910880568E-09
   -0.18510716422849860064E-09
    0.28133263329252850814E-09
    0.30166161500504272920E-09
   -0.50660484716166164608E-09
    0.26547212311707860717E-09
   -0.53805800238378706432E-09
   -0.78933028411729093975E-10
    0.10526181886945692335E-08
    0.51436489695509189707E-09
    0.17418408861342577329E-08
    0.60552246091150660137E-09
    0.14751098665852862723E-08
    0.67986003212731093928E-09
    0.93836835886148150007E-09
   -0.18509131032816268331E-09
    0.28134059234225064468E-09
    0.30166853441841814337E-09
   -0.11094843432237036653E-08
   -0.66809594928977533324E-09
   -0.11879632699053417816E-08
   -0.10631605480479048812E-08
   -0.60110627519481360433E-09
   -0.10025827181232634518E-08
   -0.64764193324410006506E-09
   -0.41236489154206936665E-09
   -0.83408009197251377541E-09
   -0.81294717417243929692E-09
   -0.61412343186556589450E-09
   -0.11805437566964012497E-08
   -0.12797280835060333708E-08
   -0.12234869157364797308E-08
   -0.10326863591014432089E-08
   -0.64225674017072735696E-09
   -0.11347108108562620010E-08
   -0.10489494864890358031E-08
   -0.59769710883184298943E-09
   -0.10020064736848078997E-08
   -0.64746546893106832817E-09
   -0.41176566194267794113E-09
   -0.83384871637710955086E-09
   -0.81221634516076138009E-09
   -0.60977362569627459886E-09
   -0.11632650690317356856E-08
   -0.12741443363713664867E-08
   -0.12208509778346694580E-08
   -0.11147441352571341949E-08
   -0.67593546389565122992E-09
   -0.98893560203334513041E-09
   -0.97666954986830122503E-09
   -0.72474838310119268321E-09
   -0.12819649134264777525E-08
   -0.11393556823286262011E-08
   -0.74251807689341687986E-09
   -0.12680774718346852844E-08
   -0.11026303685114543050E-08
   -0.76265048561740826832E-09
   -0.12476133368405981115E-08
   -0.14011307227609518696E-08
   -0.13865736581539558688E-08
    0.54572666875734909585E-09
    0.59893433020392108684E-09
    0.31648491437585318729E-08
    0.10024146909767820798E-08
   -0.24114959318178349251E-09
   -0.11459313476114647044E-08
   -0.11082606158299512605E-08
   -0.69184300778003369213E-09
   -0.12561506830600220991E-08
   -0.10800449972488529792E-08
   -0.62738412526211940211E-09
   -0.89980823217566491469E-09
   -0.10973406787158262804E-08
   -0.11854426008731127055E-08
    0.76907235128115325283E-08
    0.11240339186452123910E-07
    0.41074995021834627314E-07
    0.31102868704459714643E-07
    0.77430273454989081451E-08
    0.23385125706218256793E-08
   -0.35290910108940151641E-09
    0.69663250584470566912E-10
   -0.11216839985294455769E-08
   -0.90324111941571384060E-09
    0.39228446611737599289E-09
    0.66804770793950066063E-09
    0.19022248765469687549E-08
    0.14592924004507879704E-08
    0.26426756385897703565E-06
    0.25189142571430076215E-06
    0.75398759054439250543E-06
    0.45468090314262926975E-06
    0.12794219918180710119E-06
    0.44944199567452546658E-07
    0.10663563310747271651E-07
    0.15367449402086684408E-07
    0.27765901779335156795E-08
    0.51723809933121948972E-08
    0.31015584983742626642E-07
    0.62735788375792055249E-07
    0.70534632859158188611E-07
    0.53236742325500626106E-07
    0.14167391279362690152E-07
    0.81530152036018506062E-08
    0.23134812540662018288E-07
    0.88669535622316456208E-08
    0.17920837992579342566E-08
   -0.65283430108378096630E-09
   -0.97750925067500009774E-09
   -0.40945789304210865574E-09
   -0.11714139251735790961E-08
   -0.88760175299954059223E-09
    0.44034504075205117364E-09
    0.22555577727660516510E-08
    0.75475547136275097416E-09
   -0.84195966899486035463E-10
    0.49865149440177546868E-07
    0.22118684796253004022E-07
    0.49127319063409865373E-07
    0.16996586371520059450E-07
    0.40764406004929775414E-08
   -0.20177798379628829140E-09
   -0.82171544745931798375E-09
    0.74823622942889160333E-10
   -0.96906100382871369130E-09
   -0.33473219295651362542E-09
    0.32432297506361706508E-08
    0.11702152660359238773E-07
    0.42923854296735734501E-08
    0.17736535760367690239E-08
    0.27150316015876558059E-05
    0.18830233391751199046E-05
    0.46415490267148959289E-05
    0.23248810879099718058E-05
    0.69667647125851786894E-06
    0.21528422459008820517E-06
    0.62472789810891251018E-07
    0.11225879060517795441E-06
    0.34421555761302839368E-07
    0.65248885357731352615E-07
    0.30948433783333933482E-06
    0.72976910631221013939E-06
    0.55006230779028406351E-06
    0.37536199437883154283E-06
    0.97891145228730308883E-05
    0.51497727407615283816E-05
    0.10095090178179348924E-04
    0.43642535150437771168E-05
    0.13832822671606847978E-05
    0.37924937581693111075E-06
    0.12855334496909939821E-06
    0.29211598630526733454E-06
    0.11704034490793805555E-06
    0.25690127038145719031E-06
    0.11118018262194013817E-05
    0.29759378325807649394E-05
    0.15455658017444182974E-05
    0.96186444161051268281E-06
    0.68875679479125797349E-09
    0.10357928604821330969E-08
   -0.14711246009251551940E-09
   -0.34494791265498132407E-09
    0.31345059825514394733E-09
   -0.57230497752199253343E-09
   -0.23373103771204441365E-10
    0.96660906958972878492E-09
    0.58055974561185465317E-09
    0.17253179028879498861E-08
    0.66199706416616497194E-09
    0.15178447178770270384E-08
    0.33549953020371101499E-09
    0.35193206867971465094E-09
   -0.85167747034185823712E-09
   -0.57102753075523440784E-09
   -0.12045808687313350405E-08
   -0.11041760179131288413E-08
   -0.69411023968122499105E-09
   -0.12626579675203293640E-08
   -0.10857557965386774992E-08
   -0.58679658426810032394E-09
   -0.95910477225256053976E-09
   -0.61709958112210943999E-09
   -0.39208809039299403497E-09
   -0.69432389703331367198E-09
   -0.12234910969157681848E-08
   -0.12510758356470931999E-08
    0.68875695500683332760E-09
    0.10357930291824602311E-08
   -0.14710885446688001556E-09
   -0.34493485274453503390E-09
    0.31345249145438970798E-09
   -0.57230359973574990362E-09
   -0.23377573851362102642E-10
    0.96660602999792225756E-09
    0.58055525955938972294E-09
    0.17253151253215711066E-08
    0.66199669867170052180E-09
    0.15178447039589030088E-08
    0.33549930643827687013E-09
    0.35193116690227921035E-09
   -0.85148223131738061084E-09
   -0.57018118729446180553E-09
   -0.12006012125320970315E-08
   -0.10939598934359218806E-08
   -0.69126577410349734020E-09
   -0.12582126573565557564E-08
   -0.10849545102582394717E-08
   -0.58654517349226090033E-09
   -0.95907346289300131079E-09
   -0.61708655538252558385E-09
   -0.39201426743819472875E-09
   -0.69428255229620374074E-09
   -0.12231539694220358406E-08
   -0.12505008136740952233E-08
   -0.11579051857914114011E-08
   -0.70725652168264108583E-09
   -0.11081714073809978927E-08
   -0.85664215107126642621E-09
   -0.69196733924480786141E-09
   -0.12364888786593471381E-08
   -0.11542060509383512782E-08
   -0.74927418017159339370E-09
   -0.12760730604996641386E-08
   -0.10892695693125294180E-08
   -0.75250717997959187272E-09
   -0.12284714315919398590E-08
   -0.14024598235456955909E-08
   -0.13832575509162705318E-08
    0.24609415526601095154E-08
    0.77600971606427738032E-08
    0.30972133752027217638E-07
    0.41208139022214718306E-07
    0.11224438601076512012E-07
    0.75689467700484230400E-08
    0.76113712635911134113E-09
    0.40486597479786541811E-09
   -0.10785927029169148361E-08
   -0.94601421937887721718E-09
    0.57503000962235717604E-10
   -0.44560104627574514287E-09
    0.14426240616087323085E-08
    0.19195855427117172208E-08
   -0.10218662102296286258E-08
   -0.22363653494648920729E-09
    0.87096307300146454250E-09
    0.32972444379723789093E-08
    0.58297722710315647418E-09
    0.42412770567871733145E-09
   -0.80633523071783744624E-09
   -0.61397843039833670228E-09
   -0.12534761324910287975E-08
   -0.10773379462485286016E-08
   -0.70182533916115734890E-09
   -0.11973706784521086054E-08
   -0.12013092892898484890E-08
   -0.10794370758315128109E-08
    0.45066881738570862362E-07
    0.12795989732656371856E-06
    0.45455120854513705595E-06
    0.75412264894517516352E-06
    0.25187743319025980792E-06
    0.26414900675467547937E-06
    0.62830446710516704079E-07
    0.31029059144175961210E-07
    0.49974041273082675601E-08
    0.29524964680756471068E-08
    0.15355640393458437186E-07
    0.10571044092547294578E-07
    0.53220792711943775682E-07
    0.70552977406642643409E-07
    0.68875771859423993065E-09
    0.10357953787809826660E-08
   -0.14709774352420703432E-09
   -0.34489119022755181547E-09
    0.31346716877893910111E-09
   -0.57226726610745767977E-09
   -0.23370941020694581821E-10
    0.96660798483261778365E-09
    0.58055608716187472813E-09
    0.17253160818570257540E-08
    0.66199733740476107976E-09
    0.15178455841267154054E-08
    0.33550115170933232340E-09
    0.35193506330161644516E-09
   -0.85083431207199087785E-09
   -0.56695695911139520640E-09
   -0.11861725496296303312E-08
   -0.10500870492834170858E-08
   -0.67622871584227967214E-09
   -0.12261937184261814635E-08
   -0.10785529280801390130E-08
   -0.58474562447349873699E-09
   -0.95879705717227601542E-09
   -0.61698087505189839027E-09
   -0.39164465345462194969E-09
   -0.69413214066507076994E-09
   -0.12214859199689438241E-08
   -0.12473518545293227864E-08
    0.68876618558143192638E-09
    0.10358025600381511311E-08
   -0.14707902617459398539E-09
   -0.34483698915243564332E-09
    0.31349044663263867351E-09
   -0.57218944443476864315E-09
   -0.23355937729550036850E-10
    0.96661203019160602907E-09
    0.58055692573070897898E-09
    0.17253175532725519498E-08
    0.66200023307528089372E-09
    0.15178503573833936684E-08
    0.33550424210382293900E-09
    0.35193945526712606596E-09
   -0.85026320016718106506E-09
   -0.56355503371393626405E-09
   -0.11719658258146520830E-08
   -0.99683695517686530188E-09
   -0.65039050034255991313E-09
   -0.11493942332205951679E-08
   -0.10612737081476110956E-08
   -0.58039891022588336482E-09
   -0.95807032520813630394E-09
   -0.61675234409673135267E-09
   -0.39105069036437790060E-09
   -0.69395999750277424959E-09
   -0.12188548161630021157E-08
   -0.12417692969427072943E-08
   -0.52876799760612556412E-09
    0.18096025407870753597E-08
    0.87355099703550352549E-08
    0.23267221822398837073E-07
    0.81370804070704349684E-08
    0.14045849204552425309E-07
    0.23490708989612575162E-08
    0.45376836921797523188E-09
   -0.10610276163482880928E-08
   -0.99259968115116356627E-09
   -0.41943487152872887817E-09
   -0.10666193381034588413E-08
   -0.10005534880485799769E-09
    0.77266949633676482026E-09
    0.21540691704072707240E-06
    0.69669419988016428236E-06
    0.23247514007049245932E-05
    0.46416840326290706757E-05
    0.18830095636234343291E-05
    0.27149135271196045317E-05
    0.72986448280028086263E-06
    0.30949812448684408086E-06
    0.65074101990596733544E-07
    0.34597556257102286729E-07
    0.11224705157545655440E-06
    0.62380293278440109008E-07
    0.37534615177022981962E-06