# vtk DataFile Version 3.0
LAPLACIEN  2D
ASCII
DATASET UNSTRUCTURED_GRID
 POINTS        1857  float
   3.1250000000000000E-002  0.93750000000000000        0.0000000000000000     
   6.2500000000000000E-002  0.93750000000000000        0.0000000000000000     
   6.2500000000000000E-002  0.96875000000000000        0.0000000000000000     
   1.8749999999999999E-002  0.95625000000000004        0.0000000000000000     
   4.0625000000000001E-002  0.95937499999999998        0.0000000000000000     
   4.3749999999999997E-002  0.98124999999999996        0.0000000000000000     
   2.1874999999999999E-002  0.97812500000000002        0.0000000000000000     
   9.3750000000000000E-002  0.93750000000000000        0.0000000000000000     
  0.12500000000000000       0.93750000000000000        0.0000000000000000     
  0.12500000000000000       0.96875000000000000        0.0000000000000000     
   8.1250000000000003E-002  0.95625000000000004        0.0000000000000000     
  0.10312499999999999       0.95937499999999998        0.0000000000000000     
  0.10625000000000000       0.98124999999999996        0.0000000000000000     
   8.4375000000000006E-002  0.97812500000000002        0.0000000000000000     
   3.1250000000000000E-002  0.87500000000000000        0.0000000000000000     
   6.2500000000000000E-002  0.87500000000000000        0.0000000000000000     
   6.2500000000000000E-002  0.90625000000000000        0.0000000000000000     
   1.8749999999999999E-002  0.89375000000000004        0.0000000000000000     
   4.0625000000000001E-002  0.89687499999999998        0.0000000000000000     
   4.3749999999999997E-002  0.91874999999999996        0.0000000000000000     
   2.1874999999999999E-002  0.91562500000000002        0.0000000000000000     
   9.3750000000000000E-002  0.87500000000000000        0.0000000000000000     
  0.12500000000000000       0.87500000000000000        0.0000000000000000     
  0.12500000000000000       0.90625000000000000        0.0000000000000000     
   8.1250000000000003E-002  0.89375000000000004        0.0000000000000000     
  0.10312499999999999       0.89687499999999998        0.0000000000000000     
  0.10625000000000000       0.91874999999999996        0.0000000000000000     
   8.4375000000000006E-002  0.91562500000000002        0.0000000000000000     
  0.15625000000000000       0.93750000000000000        0.0000000000000000     
  0.18750000000000000       0.93750000000000000        0.0000000000000000     
  0.18750000000000000       0.96875000000000000        0.0000000000000000     
  0.14374999999999999       0.95625000000000004        0.0000000000000000     
  0.16562499999999999       0.95937499999999998        0.0000000000000000     
  0.16875000000000001       0.98124999999999996        0.0000000000000000     
  0.14687500000000001       0.97812500000000002        0.0000000000000000     
  0.21875000000000000       0.93750000000000000        0.0000000000000000     
  0.25000000000000000       0.93750000000000000        0.0000000000000000     
  0.25000000000000000       0.96875000000000000        0.0000000000000000     
  0.20624999999999999       0.95625000000000004        0.0000000000000000     
  0.22812499999999999       0.95937499999999998        0.0000000000000000     
  0.23125000000000001       0.98124999999999996        0.0000000000000000     
  0.20937500000000001       0.97812500000000002        0.0000000000000000     
  0.15625000000000000       0.87500000000000000        0.0000000000000000     
  0.18750000000000000       0.87500000000000000        0.0000000000000000     
  0.18750000000000000       0.90625000000000000        0.0000000000000000     
  0.14374999999999999       0.89375000000000004        0.0000000000000000     
  0.16562499999999999       0.89687499999999998        0.0000000000000000     
  0.16875000000000001       0.91874999999999996        0.0000000000000000     
  0.14687500000000001       0.91562500000000002        0.0000000000000000     
  0.21875000000000000       0.87500000000000000        0.0000000000000000     
  0.25000000000000000       0.87500000000000000        0.0000000000000000     
  0.25000000000000000       0.90625000000000000        0.0000000000000000     
  0.20624999999999999       0.89375000000000004        0.0000000000000000     
  0.22812499999999999       0.89687499999999998        0.0000000000000000     
  0.23125000000000001       0.91874999999999996        0.0000000000000000     
  0.20937500000000001       0.91562500000000002        0.0000000000000000     
   3.1250000000000000E-002  0.81250000000000000        0.0000000000000000     
   6.2500000000000000E-002  0.81250000000000000        0.0000000000000000     
   6.2500000000000000E-002  0.84375000000000000        0.0000000000000000     
   1.8749999999999999E-002  0.83125000000000004        0.0000000000000000     
   4.0625000000000001E-002  0.83437499999999998        0.0000000000000000     
   4.3749999999999997E-002  0.85624999999999996        0.0000000000000000     
   2.1874999999999999E-002  0.85312500000000002        0.0000000000000000     
   9.3750000000000000E-002  0.81250000000000000        0.0000000000000000     
  0.12500000000000000       0.81250000000000000        0.0000000000000000     
  0.12500000000000000       0.84375000000000000        0.0000000000000000     
   8.1250000000000003E-002  0.83125000000000004        0.0000000000000000     
  0.10312499999999999       0.83437499999999998        0.0000000000000000     
  0.10625000000000000       0.85624999999999996        0.0000000000000000     
   8.4375000000000006E-002  0.85312500000000002        0.0000000000000000     
   3.1250000000000000E-002  0.75000000000000000        0.0000000000000000     
   6.2500000000000000E-002  0.75000000000000000        0.0000000000000000     
   6.2500000000000000E-002  0.78125000000000000        0.0000000000000000     
   1.8749999999999999E-002  0.76875000000000004        0.0000000000000000     
   4.0625000000000001E-002  0.77187499999999998        0.0000000000000000     
   4.3749999999999997E-002  0.79374999999999996        0.0000000000000000     
   2.1874999999999999E-002  0.79062500000000002        0.0000000000000000     
   9.3750000000000000E-002  0.75000000000000000        0.0000000000000000     
  0.12500000000000000       0.75000000000000000        0.0000000000000000     
  0.12500000000000000       0.78125000000000000        0.0000000000000000     
   8.1250000000000003E-002  0.76875000000000004        0.0000000000000000     
  0.10312499999999999       0.77187499999999998        0.0000000000000000     
  0.10625000000000000       0.79374999999999996        0.0000000000000000     
   8.4375000000000006E-002  0.79062500000000002        0.0000000000000000     
  0.15625000000000000       0.81250000000000000        0.0000000000000000     
  0.18750000000000000       0.81250000000000000        0.0000000000000000     
  0.18750000000000000       0.84375000000000000        0.0000000000000000     
  0.14374999999999999       0.83125000000000004        0.0000000000000000     
  0.16562499999999999       0.83437499999999998        0.0000000000000000     
  0.16875000000000001       0.85624999999999996        0.0000000000000000     
  0.14687500000000001       0.85312500000000002        0.0000000000000000     
  0.21875000000000000       0.81250000000000000        0.0000000000000000     
  0.25000000000000000       0.81250000000000000        0.0000000000000000     
  0.25000000000000000       0.84375000000000000        0.0000000000000000     
  0.20624999999999999       0.83125000000000004        0.0000000000000000     
  0.22812499999999999       0.83437499999999998        0.0000000000000000     
  0.23125000000000001       0.85624999999999996        0.0000000000000000     
  0.20937500000000001       0.85312500000000002        0.0000000000000000     
  0.15625000000000000       0.75000000000000000        0.0000000000000000     
  0.18750000000000000       0.75000000000000000        0.0000000000000000     
  0.18750000000000000       0.78125000000000000        0.0000000000000000     
  0.14374999999999999       0.76875000000000004        0.0000000000000000     
  0.16562499999999999       0.77187499999999998        0.0000000000000000     
  0.16875000000000001       0.79374999999999996        0.0000000000000000     
  0.14687500000000001       0.79062500000000002        0.0000000000000000     
  0.21875000000000000       0.75000000000000000        0.0000000000000000     
  0.25000000000000000       0.75000000000000000        0.0000000000000000     
  0.25000000000000000       0.78125000000000000        0.0000000000000000     
  0.20624999999999999       0.76875000000000004        0.0000000000000000     
  0.22812499999999999       0.77187499999999998        0.0000000000000000     
  0.23125000000000001       0.79374999999999996        0.0000000000000000     
  0.20937500000000001       0.79062500000000002        0.0000000000000000     
  0.28125000000000000       0.93750000000000000        0.0000000000000000     
  0.31250000000000000       0.93750000000000000        0.0000000000000000     
  0.31250000000000000       0.96875000000000000        0.0000000000000000     
  0.26874999999999999       0.95625000000000004        0.0000000000000000     
  0.29062500000000002       0.95937499999999998        0.0000000000000000     
  0.29375000000000001       0.98124999999999996        0.0000000000000000     
  0.27187499999999998       0.97812500000000002        0.0000000000000000     
  0.34375000000000000       0.93750000000000000        0.0000000000000000     
  0.37500000000000000       0.93750000000000000        0.0000000000000000     
  0.37500000000000000       0.96875000000000000        0.0000000000000000     
  0.33124999999999999       0.95625000000000004        0.0000000000000000     
  0.35312500000000002       0.95937499999999998        0.0000000000000000     
  0.35625000000000001       0.98124999999999996        0.0000000000000000     
[...]
 CELL_DATA        3584
 SCALARS VEGF float
 LOOKUP_TABLE default
    0.35326688351759742417E-08
    0.41644737963339253552E-08
    0.28323821481061261029E-08
    0.29469855489735881835E-08
    0.42240612680161856225E-08
    0.33978831201038257436E-08
    0.46954160688550099505E-08
    0.38049659242523208400E-08
    0.38259385260568353874E-08
    0.40135857816301283606E-08
    0.37828475641619161445E-08
    0.44414879830093833959E-08
    0.39690111719293522169E-08
    0.39978955375256567047E-08
    0.20112355258220520879E-08
    0.25945378435678474383E-08
    0.16557708590567982761E-08
    0.20790634681218934546E-08
    0.32554363348760655861E-08
    0.27168358834608440132E-08
    0.38779584843438376240E-08
    0.29606807792571772479E-08
    0.39455186722245090165E-08
    0.33768524140198315904E-08
    0.35186960464616925788E-08
    0.26098340755993890606E-08
    0.27201177188059814209E-08
    0.26927548701941002192E-08
    0.28943353011489566694E-08
    0.32519509211815655574E-08
    0.20268475963224939070E-08
    0.18371038697076258446E-08
    0.26227376401097133229E-08
    0.19120735450670669438E-08
    0.27225544273409422644E-08
    0.35296445768606526607E-08
    0.32632569294535449793E-08
    0.41591124789224194157E-08
    0.30066500615533475955E-08
    0.36770905945747411012E-08
    0.27234903032049858988E-08
    0.27796539508049265893E-08
    0.13827722656978201435E-08
    0.17345468057655222667E-08
    0.16163327733933476537E-08
    0.17322759206567840541E-08
    0.16961092220007179685E-08
    0.12213991645032274222E-08
    0.15322558656889582419E-08
    0.18418581321835519143E-08
    0.16635673144739695930E-08
    0.18303373081767970669E-08
    0.18423124017309589357E-08
    0.14909091610695078825E-08
    0.10631769722563704423E-08
    0.10739306678127703880E-08
    0.17114742396759767611E-08
    0.25111791901415040478E-08
    0.20822480447359736658E-08
    0.24559073273256849073E-08
    0.32686969887774524133E-08
    0.27090114434692808329E-08
    0.37401955039890935807E-08
    0.27054776622879989109E-08
    0.35263939451516577295E-08
    0.28375274644830667119E-08
    0.30576917494317076402E-08
    0.19694963114543636093E-08
    0.24797693356079839997E-08
    0.24968789011975708177E-08
    0.39006425213337323109E-08
    0.46913386629267501725E-08
    0.69044993836206464891E-08
    0.61464013283535756995E-08
    0.47659495886217947816E-08
    0.36129049099882196634E-08
    0.41987221669349092293E-08
    0.30786527172406772968E-08
    0.36450935531562823357E-08
    0.29238612190909635887E-08
    0.35079257182305132908E-08
    0.26642849110274468081E-08
    0.33817665017671858872E-08
    0.32962950440927851484E-08
    0.52497739624649027055E-08
    0.67780713235313180257E-08
    0.13887600336120791930E-07
    0.12904854200092647797E-07
    0.61859255915541379126E-08
    0.41506105583382454486E-08
    0.24416144094259273576E-08
    0.25636416788134405215E-08
    0.14940269952694301096E-08
    0.15061379997929193819E-08
    0.24627730817359016247E-08
    0.22557141666191722417E-08
    0.31259529027059750035E-08
    0.30791756574619735265E-08
    0.49072481821245044480E-07
    0.53299837672383195879E-07
    0.11190816782201843202E-06
    0.93960432388461930091E-07
    0.41041563039622871997E-07
    0.25124463377295780800E-07
    0.10801728387882254830E-07
    0.11594993643651173130E-07
    0.50608338543399285815E-08
    0.56985616487640452626E-08
    0.14524464876633096493E-07
    0.19116136693983196896E-07
    0.24566314625413639475E-07
    0.22501032659647482362E-07
    0.28969825754194865041E-08
    0.32793201778434708453E-08
    0.24159321192658535117E-08
    0.22797535210492737229E-08
    0.25639310959360523398E-08
    0.16492370506426908752E-08
    0.21321141899040774933E-08
    0.31032974302164220397E-08
    0.27592736415100221455E-08
    0.37682616595556360155E-08
    0.27718542751091189942E-08
    0.35533282558536879810E-08
    0.25481126770811622547E-08
    0.25633805037291324957E-08
    0.43241689828761739654E-08
    0.62407134721361198995E-08
    0.12802429099116124981E-07
    0.14020959445832008711E-07
    0.67664684082805043529E-08
    0.51269137147329734172E-08
    0.23502981509055347483E-08
    0.25038822640212471221E-08
    0.13885944712648109769E-08
    0.16984947306683968551E-08
    0.25896572304991925345E-08
    0.24168619777401553844E-08
    0.30927433030167091138E-08
    0.31648664108846733712E-08
    0.38027939012964317564E-08
    0.47791875128465942071E-08
    0.61085771543095492983E-08
    0.71048910263343467331E-08
    0.47486812224853847540E-08
    0.38453408302760777905E-08
    0.28364634959887288853E-08
    0.35606136712657428634E-08
    0.28537537489146723969E-08
    0.38932315111566496615E-08
    0.31492153477817238758E-08
    0.40145665901337046801E-08
    0.33515259427011802250E-08
    0.34700815898336319809E-08
    0.25300113008981452171E-07
    0.41099235669897574335E-07
    0.93860354044327042416E-07
    0.11204464639649360277E-06
    0.53293243461692758961E-07
    0.48957105654586065678E-07
    0.19221268192956831699E-07
    0.14573526347648784502E-07
    0.55903742632441667459E-08
    0.52723620188988977855E-08
    0.11625675305498401951E-07
    0.10779916927044990637E-07
    0.22519043323046727805E-07
    0.24610455291839325151E-07
    0.56981763947731202729E-07
    0.76617344826504714249E-07
    0.17019930681520856865E-06
    0.17031909155754052873E-06
    0.76589204914484335446E-07
    0.56846271136783957863E-07
    0.22423308940765484744E-07
    0.20081063228240849310E-07
    0.75267534992234471490E-08
    0.76826167530278213088E-08
    0.20066011105053072040E-07
    0.22346189430169008602E-07
    0.38211320395488325393E-07
    0.38225812850321553266E-07
    0.62307324688464719479E-06
    0.73273591475063375203E-06
    0.15141432580375087803E-05
    0.13800280863192210375E-05
    0.63517736702242109953E-06
    0.43298579260482424326E-06
    0.18112859531251420229E-06
    0.17894879299620358513E-06
    0.73831146429189537727E-07
    0.80190287884685918465E-07
    0.20657454486578148760E-06
    0.25647209470877794537E-06
    0.36939879451073908762E-06
    0.35202162205299816908E-06
    0.43312347521284620681E-06
    0.63520847393303305064E-06
    0.13799106269242970897E-05
    0.15142661077764154195E-05
    0.73271284669230268771E-06
    0.62294528132906990205E-06
    0.25655984413024675316E-06
    0.20659774618259866428E-06
    0.80044159413837222679E-07
    0.73994494298407019990E-07
    0.17893866085620461594E-06
    0.18105461790913961580E-06
    0.35201172591862697525E-06
    0.36941865718254002781E-06
    0.51868069927131305868E-05
    0.67227804139688780279E-05
    0.13556457035613305885E-04
    0.13556577896308657334E-04
    0.67227546928188536466E-05
    0.51866774236448061431E-05
    0.22873132937198089621E-05
    0.20682405912588049046E-05
    0.88388978588353797279E-06
    0.88404340831093313720E-06
    0.20682222626508758132E-05
    0.22872285258589675590E-05
    0.37347346137199128796E-05
    0.37347499302263658153E-05
    0.17084576302022207838E-07
    0.16011753127906873986E-07
    0.29223776919659933336E-07
    0.21835612439363199296E-07
    0.11446622976042178124E-07
    0.73556918089186307751E-08
    0.63594695948814891274E-08
    0.51773180205881327925E-08
    0.47718572254172630353E-08
    0.41122107572483612380E-08
    0.66259662416251934125E-08
    0.77581041515278058993E-08
    0.83109378721561915079E-08
    0.74517646783629360352E-08
    0.64536491780698882831E-07
    0.51604536111226545455E-07
    0.92073341341156190659E-07
    0.62431665776032966658E-07
    0.29398612204137120214E-07
    0.16645294064500257519E-07
    0.12230222221428781156E-07
    0.11599551519756635475E-07
    0.87062922675146164356E-08
    0.86090491321991024801E-08
    0.17820951900569372355E-07
    0.27473751930530975387E-07
    0.24020043523062482027E-07
    0.20079697388570770665E-07
    0.31876225680373368978E-06
    0.30205266604403990742E-06
    0.58727171356955528746E-06
    0.45333563119034094443E-06
    0.20127684066519796078E-06
    0.11384453357727678764E-06
    0.49163868958026311949E-07
    0.58524691566330000867E-07
    0.26236865221548480455E-07
    0.32832951534837667401E-07
    0.87712274145831544466E-07
    0.13046238145391037112E-06
    0.14057583836488855441E-06
    0.12261765203621383631E-06
    0.13332026987613657754E-05
    0.11149953916421308350E-05
    0.19757580006224890683E-05
    0.14149204532584667790E-05
    0.64767755247492327438E-06
    0.34132448185893348631E-06
    0.15654105295760521251E-06
    0.20763335905524674040E-06
    0.10252731127550734466E-06
    0.13897427369283856188E-06
    0.36062799369281185140E-06
    0.58120408507391065064E-06
    0.52465430118414301801E-06
    0.43838063801878631417E-06
    0.16676891952694951966E-06
    0.11785029920503951770E-06
    0.19368195686220399492E-06
    0.12199466175479276924E-06
    0.57038759060491444920E-07
    0.29680772667749076497E-07
    0.21451234796449122128E-07
    0.23203246178166761406E-07
    0.16940112926518804354E-07
    0.18839436542632173419E-07
    0.42057702743344927165E-07
    0.73646923853185976147E-07
    0.53710002479251443221E-07
    0.42699554847179518997E-07
    0.28379279107548385898E-06
    0.17970845775603675392E-06
    0.26684490313090785384E-06
    0.15753765949105527902E-06
    0.75396535280090400439E-07
    0.36822889791831597599E-07
    0.27912288254768764522E-07
    0.33606005787767363745E-07
    0.26176465185506159503E-07
    0.31659404812546816943E-07
    0.70409194675707518151E-07
    0.13328545900718015547E-06
    0.82124595634787192482E-07
    0.62620554536359551641E-07
    0.35859684445988988166E-05
    0.26690274658838303687E-05
    0.42774718258237673770E-05
    0.28586507278476126701E-05
    0.13534259106577348511E-05
    0.66793807560017307219E-06
    0.32901199210503158823E-06
    0.48505570803134283832E-06
    0.26719150631996776386E-06
    0.38893777396712343437E-06
    0.96916576227818496395E-06
    0.16738096902194293556E-05
    0.12709062117644802257E-05
    0.10196074241130295410E-05
    0.62214964737620152729E-05
    0.41477129371168388063E-05
    0.59662752478456493685E-05
    0.37346754803132755557E-05
    0.18327893848610370269E-05
    0.84984562788391437201E-06
    0.45188319977013930072E-06
    0.73920249303931809712E-06
    0.45644602587465137745E-06
    0.71068328977141574981E-06
    0.16962576942477099377E-05
    0.31224548310058761977E-05
    0.19995066299090013382E-05
    0.15417472779561636866E-05
    0.43992139322720825333E-05
    0.45048725920379059458E-05
    0.85209552628770263323E-05
    0.70936639553189987032E-05
    0.33673490496352246082E-05
    0.21090279222652173572E-05
    0.94816222579031568659E-06
    0.10519632668362756222E-05
    0.48329616136366051026E-06
    0.56903983458182359500E-06
    0.14119208312370382030E-05
    0.19211493204744005907E-05
    0.22848770362872801750E-05
    0.20752242396735521241E-05
    0.19470174703576907134E-04
    0.17442376938099294340E-04
    0.29913828333964668854E-04
    0.22981933242273917985E-04
    0.11291040437207445165E-04
    0.65549783177936706523E-05
    0.31773750855026890657E-05
    0.39455965216430982770E-05
    0.20279476934894446413E-05
    0.25811446527856606761E-05
    0.61408935303513585572E-05
    0.90878974070610476431E-05
    0.89284026638971781008E-05
    0.77529227170842866123E-05
    0.40761534739749270991E-04
    0.45787118999405470351E-04
    0.84681459714623598303E-04
    0.76372364107302569808E-04
    0.38907003098063037408E-04
    0.27137136064096328115E-04
    0.12894179199732910262E-04
    0.13232112968322848665E-04
    0.62953045451016866957E-05
    0.68723905884741629034E-05
    0.15548888581310180379E-04
    0.18993671639366839884E-04
    0.25374216493163959839E-04
    0.24073359500611322129E-04
    0.19731623620931537850E-03
    0.19003194361984313563E-03
    0.31641219643200045901E-03
    0.26028342327739185718E-03
    0.13732800255899932839E-03
    0.87842546609535876716E-04
    0.45191152150206687587E-04
    0.52408281175402355212E-04
    0.28037659130968463437E-04
    0.33391766385196535068E-04
    0.72639827342423120694E-04
    0.98212760777053334732E-04
    0.10571406958454833988E-03
    0.95333334938416848937E-04
    0.54060731237323358554E-04
    0.42875400008277794988E-04
    0.66290398567499199053E-04
    0.47405137503170014467E-04
    0.24152564882758646844E-04
    0.13082106784638510919E-04
    0.68504581153678508360E-05
    0.94812226147631860422E-05
    0.54662658903383466865E-05
    0.74803787681113310951E-05
    0.17019605655154494933E-04
    0.27127434262959914985E-04
    0.22207737308449807759E-04
    0.18494194689465245977E-04
    0.95429197181651117653E-04
    0.67540028863182440563E-04
    0.93482347025711901608E-04
    0.62470833235442641972E-04
    0.33079827024765917089E-04
    0.16776162542649756707E-04
    0.95187927844953926248E-05
    0.14659441907183797115E-04
    0.95055766439823296984E-05
    0.13935480276445225768E-04
    0.30295362201218305036E-04
    0.51682668931112132676E-04
    0.35431629399602775912E-04
    0.28332671270707960280E-04
    0.56887824888600477952E-03
    0.48078688346019993541E-03
    0.71667539128496499188E-03
    0.54814911387835525865E-03
    0.30093895471911967683E-03
    0.17891063263820319667E-03
    0.99797580654880155412E-04
    0.12952447255377584276E-03
    0.78102548889770215886E-04
    0.10049086664453937118E-03
    0.20867206356890396265E-03
    0.30669334490460446914E-03
    0.27091156037789803756E-03
    0.23387313702040029044E-03
    0.10177241980143406173E-02
    0.76628868481839476027E-03
    0.10188014443647148977E-02
    0.72786629334920872111E-03
    0.41675812689464847207E-03
    0.23123722608785329531E-03
    0.14024390160683426819E-03
    0.20315762917134895169E-03
    0.13821740434067847423E-03
    0.19090035448927772659E-03
    0.37775054160548885785E-03
    0.59626752181257951669E-03
    0.43823626632788693263E-03
    0.36306934655272406123E-03
    0.75458432549801739223E-08
    0.11460238655008956322E-07
    0.21798086174454639788E-07
    0.29424583993784783435E-07
    0.16069809287782361756E-07
    0.17030402796272694697E-07
    0.79319180917981930613E-08
    0.66798485888114473091E-08
    0.40435432421170734829E-08
    0.50210603212494627337E-08
    0.52485437112365071511E-08
    0.61757093441416324508E-08
    0.75076146937345615387E-08
    0.83999952455935742197E-08
    0.11402047476519485742E-06
    0.20133493167630647907E-06
    0.45323588316691869014E-06
    0.58740861892923718369E-06
    0.30204684747828766772E-06
    0.31864809200898323290E-06
    0.13056929563022165017E-06
    0.87762640244700705541E-07
    0.32726334534307700160E-07
    0.26449538545631496644E-07
    0.58556091253049892848E-07
    0.49142482478411645662E-07
    0.12263634138386358568E-06
    0.14062079203775216471E-06
    0.16835472513861219324E-07
    0.29412273058576030697E-07
    0.62394175466356576695E-07
    0.92274200192681195842E-07
    0.51662677127920805366E-07
    0.64482462206420939605E-07
    0.27647783919980739022E-07
    0.17874985255843374923E-07
    0.85405719394587380529E-08
    0.89556293825202246786E-08
    0.11670857361200888184E-07
    0.12046508620855928918E-07
    0.20135621127546436995E-07
    0.24109190921143316140E-07
    0.34150047522458036671E-06
    0.64773573114368196163E-06
    0.14148208482597297541E-05
    0.19758950314461880308E-05
    0.11149897079948553932E-05
    0.13330886754049167872E-05
    0.58131124861031220892E-06
    0.36067854287678813224E-06
    0.13886786528621448076E-06
    0.10274013200216539461E-06
    0.20766485568262118251E-06
    0.15651972387699022854E-06
    0.43839943255292554437E-06
    0.52469938083332012664E-06
    0.21091656917799155579E-05
    0.33673800865864124658E-05
    0.70935455721384226200E-05
    0.85210765851752084607E-05
    0.45048495635804335142E-05
    0.43990865794590525411E-05
    0.19212387323767109382E-05
    0.14119452645254908360E-05
    0.56889533208452973205E-06
    0.48346071006950021535E-06
    0.10519538146906202779E-05
    0.94808863702982164158E-06
    0.20752148075456714152E-05
    0.22848974642271137178E-05
    0.27137257062081051397E-04
    0.38907015816189150208E-04
    0.76372214103932750543E-04
    0.84681550440645630301E-04
    0.45787082667210425688E-04
    0.40761402533011695509E-04
    0.18993756934779557457E-04
    0.15548905815409212554E-04
    0.68722376349354784010E-05
    0.62954583186877847244E-05
    0.13232092227388518536E-04
    0.12894091353188701370E-04
    0.24073338497202454182E-04
    0.25374226695698608256E-04
    0.65551164599460398985E-05
    0.11291071775923962157E-04
    0.22981816076340160176E-04
    0.29913948384178196436E-04
    0.17442352353095397428E-04
    0.19470043451729253126E-04
    0.90879855059298222638E-05
    0.61409174648135859183E-05
    0.25810001396528545795E-05
    0.20281123174718483931E-05
    0.39455870954774303913E-05
    0.31773016374246171516E-05
    0.77529130981270123779E-05
    0.89284225831127911251E-05
    0.87842670174797279599E-04
    0.13732799947386076559E-03
    0.26028324584109719612E-03
    0.31641215246230012820E-03
    0.19003182695607819691E-03
    0.19731599257936065358E-03
    0.98212802891598177755E-04
    0.72639818326395734754E-04
    0.33391602881271983494E-04
    0.28037806019634414344E-04
    0.52408249885672006667E-04
    0.45191061816343983061E-04
    0.95333290544033700469E-04
    0.10571404538020958417E-03
    0.29870953801356369507E-07
    0.57052422633579945538E-07
    0.12195717606577940207E-06
    0.19388282957822921678E-06
    0.11790845599499645644E-06
    0.16671491663585390294E-06
    0.73820986658389258782E-07
    0.42111756142663703071E-07
    0.18770977847945131344E-07
    0.17189460003799727255E-07
    0.23274555738875805261E-07
    0.21267520537773331652E-07
    0.42755483904046476663E-07
    0.53799158790290946241E-07
    0.66811409159260826679E-06
    0.13534841810055986163E-05
    0.28585513276545626896E-05
    0.42776092545434201618E-05
    0.26690220587588796420E-05
    0.35858548211355368750E-05
    0.16739170400369026374E-05
    0.96921641665130164758E-06
    0.38883141621574847311E-06
    0.26740435892507142124E-06
    0.48508724733028655211E-06
    0.32899068211061177821E-06
    0.10196263090103837605E-05
    0.12709514169858120265E-05
    0.37013065198336655166E-07
    0.75410193474886663017E-07
    0.15750016650957268590E-06
    0.26704576606023509967E-06
    0.17976661379786556657E-06
    0.28373878938258098535E-06
    0.13345952029025813799E-06
    0.70463247387673582651E-07
    0.31590946452874599954E-07
    0.26425811988380369753E-07
    0.33677315278313290374E-07
    0.27728573143212925270E-07
    0.62676482407385379321E-07
    0.82213750612332376956E-07
    0.85002161459603936587E-06
    0.18328476088671385012E-05
    0.37345759817051551469E-05
    0.59664125678199741778E-05
    0.41477075669793062805E-05
    0.62213831073269090593E-05
    0.31225623478949198165E-05
    0.16963083960346029159E-05
    0.71057694680521147644E-06
    0.45665887931412891587E-06
    0.73923402345276708020E-06
    0.45186187508085214998E-06
    0.15417661518726098830E-05
    0.19995518425276099337E-05
    0.13082246358271630446E-04
    0.24152600528768753562E-04
    0.47405030307068701215E-04
    0.66290535699544786180E-04
    0.42875385341157933950E-04
    0.54060611136524057744E-04
    0.27127525961748712261E-04
    0.17019632058745437801E-04
    0.74802349708442855792E-05
    0.54664311084939113267E-05
    0.94812145880491862922E-05
    0.68503853991159975215E-05
    0.18494188384608483165E-04
    0.22207761497515891971E-04
    0.17891079863228533738E-03
    0.30093904097295437212E-03
    0.54814905412244778818E-03
    0.71667558176384202080E-03
    0.48078693005888388555E-03
    0.56887811658799000529E-03
    0.30669341490252685807E-03
    0.20867210108061479547E-03
    0.10049071724881143198E-03
    0.78102712237987058906E-04
    0.12952448311216241883E-03
    0.99797517722218672645E-04
    0.23387317455569794152E-03