# vtk DataFile Version 3.0
LAPLACIEN  2D
ASCII
DATASET UNSTRUCTURED_GRID
 POINTS        1857  float
   3.1250000000000000E-002  0.93750000000000000        0.0000000000000000     
   6.2500000000000000E-002  0.93750000000000000        0.0000000000000000     
   6.2500000000000000E-002  0.96875000000000000        0.0000000000000000     
   1.8749999999999999E-002  0.95625000000000004        0.0000000000000000     
   4.0625000000000001E-002  0.95937499999999998        0.0000000000000000     
   4.3749999999999997E-002  0.98124999999999996        0.0000000000000000     
   2.1874999999999999E-002  0.97812500000000002        0.0000000000000000     
   9.3750000000000000E-002  0.93750000000000000        0.0000000000000000     
  0.12500000000000000       0.93750000000000000        0.0000000000000000     
  0.12500000000000000       0.96875000000000000        0.0000000000000000     
   8.1250000000000003E-002  0.95625000000000004        0.0000000000000000     
  0.10312499999999999       0.95937499999999998        0.0000000000000000     
  0.10625000000000000       0.98124999999999996        0.0000000000000000     
   8.4375000000000006E-002  0.97812500000000002        0.0000000000000000     
   3.1250000000000000E-002  0.87500000000000000        0.0000000000000000     
   6.2500000000000000E-002  0.87500000000000000        0.0000000000000000     
   6.2500000000000000E-002  0.90625000000000000        0.0000000000000000     
   1.8749999999999999E-002  0.89375000000000004        0.0000000000000000     
   4.0625000000000001E-002  0.89687499999999998        0.0000000000000000     
   4.3749999999999997E-002  0.91874999999999996        0.0000000000000000     
   2.1874999999999999E-002  0.91562500000000002        0.0000000000000000     
   9.3750000000000000E-002  0.87500000000000000        0.0000000000000000     
  0.12500000000000000       0.87500000000000000        0.0000000000000000     
  0.12500000000000000       0.90625000000000000        0.0000000000000000     
   8.1250000000000003E-002  0.89375000000000004        0.0000000000000000     
  0.10312499999999999       0.89687499999999998        0.0000000000000000     
  0.10625000000000000       0.91874999999999996        0.0000000000000000     
   8.4375000000000006E-002  0.91562500000000002        0.0000000000000000     
  0.15625000000000000       0.93750000000000000        0.0000000000000000     
  0.18750000000000000       0.93750000000000000        0.0000000000000000     
  0.18750000000000000       0.96875000000000000        0.0000000000000000     
  0.14374999999999999       0.95625000000000004        0.0000000000000000     
  0.16562499999999999       0.95937499999999998        0.0000000000000000     
  0.16875000000000001       0.98124999999999996        0.0000000000000000     
  0.14687500000000001       0.97812500000000002        0.0000000000000000     
  0.21875000000000000       0.93750000000000000        0.0000000000000000     
  0.25000000000000000       0.93750000000000000        0.0000000000000000     
  0.25000000000000000       0.96875000000000000        0.0000000000000000     
  0.20624999999999999       0.95625000000000004        0.0000000000000000     
  0.22812499999999999       0.95937499999999998        0.0000000000000000     
  0.23125000000000001       0.98124999999999996        0.0000000000000000     
  0.20937500000000001       0.97812500000000002        0.0000000000000000     
  0.15625000000000000       0.87500000000000000        0.0000000000000000     
  0.18750000000000000       0.87500000000000000        0.0000000000000000     
  0.18750000000000000       0.90625000000000000        0.0000000000000000     
  0.14374999999999999       0.89375000000000004        0.0000000000000000     
  0.16562499999999999       0.89687499999999998        0.0000000000000000     
  0.16875000000000001       0.91874999999999996        0.0000000000000000     
  0.14687500000000001       0.91562500000000002        0.0000000000000000     
  0.21875000000000000       0.87500000000000000        0.0000000000000000     
  0.25000000000000000       0.87500000000000000        0.0000000000000000     
  0.25000000000000000       0.90625000000000000        0.0000000000000000     
  0.20624999999999999       0.89375000000000004        0.0000000000000000     
  0.22812499999999999       0.89687499999999998        0.0000000000000000     
  0.23125000000000001       0.91874999999999996        0.0000000000000000     
  0.20937500000000001       0.91562500000000002        0.0000000000000000     
   3.1250000000000000E-002  0.81250000000000000        0.0000000000000000     
   6.2500000000000000E-002  0.81250000000000000        0.0000000000000000     
   6.2500000000000000E-002  0.84375000000000000        0.0000000000000000     
   1.8749999999999999E-002  0.83125000000000004        0.0000000000000000     
   4.0625000000000001E-002  0.83437499999999998        0.0000000000000000     
   4.3749999999999997E-002  0.85624999999999996        0.0000000000000000     
   2.1874999999999999E-002  0.85312500000000002        0.0000000000000000     
   9.3750000000000000E-002  0.81250000000000000        0.0000000000000000     
  0.12500000000000000       0.81250000000000000        0.0000000000000000     
  0.12500000000000000       0.84375000000000000        0.0000000000000000     
   8.1250000000000003E-002  0.83125000000000004        0.0000000000000000     
  0.10312499999999999       0.83437499999999998        0.0000000000000000     
  0.10625000000000000       0.85624999999999996        0.0000000000000000     
   8.4375000000000006E-002  0.85312500000000002        0.0000000000000000     
   3.1250000000000000E-002  0.75000000000000000        0.0000000000000000     
   6.2500000000000000E-002  0.75000000000000000        0.0000000000000000     
   6.2500000000000000E-002  0.78125000000000000        0.0000000000000000     
   1.8749999999999999E-002  0.76875000000000004        0.0000000000000000     
   4.0625000000000001E-002  0.77187499999999998        0.0000000000000000     
   4.3749999999999997E-002  0.79374999999999996        0.0000000000000000     
   2.1874999999999999E-002  0.79062500000000002        0.0000000000000000     
   9.3750000000000000E-002  0.75000000000000000        0.0000000000000000     
  0.12500000000000000       0.75000000000000000        0.0000000000000000     
  0.12500000000000000       0.78125000000000000        0.0000000000000000     
   8.1250000000000003E-002  0.76875000000000004        0.0000000000000000     
  0.10312499999999999       0.77187499999999998        0.0000000000000000     
  0.10625000000000000       0.79374999999999996        0.0000000000000000     
   8.4375000000000006E-002  0.79062500000000002        0.0000000000000000     
  0.15625000000000000       0.81250000000000000        0.0000000000000000     
  0.18750000000000000       0.81250000000000000        0.0000000000000000     
  0.18750000000000000       0.84375000000000000        0.0000000000000000     
  0.14374999999999999       0.83125000000000004        0.0000000000000000     
  0.16562499999999999       0.83437499999999998        0.0000000000000000     
  0.16875000000000001       0.85624999999999996        0.0000000000000000     
  0.14687500000000001       0.85312500000000002        0.0000000000000000     
  0.21875000000000000       0.81250000000000000        0.0000000000000000     
  0.25000000000000000       0.81250000000000000        0.0000000000000000     
  0.25000000000000000       0.84375000000000000        0.0000000000000000     
  0.20624999999999999       0.83125000000000004        0.0000000000000000     
  0.22812499999999999       0.83437499999999998        0.0000000000000000     
  0.23125000000000001       0.85624999999999996        0.0000000000000000     
  0.20937500000000001       0.85312500000000002        0.0000000000000000     
  0.15625000000000000       0.75000000000000000        0.0000000000000000     
  0.18750000000000000       0.75000000000000000        0.0000000000000000     
  0.18750000000000000       0.78125000000000000        0.0000000000000000     
  0.14374999999999999       0.76875000000000004        0.0000000000000000     
  0.16562499999999999       0.77187499999999998        0.0000000000000000     
  0.16875000000000001       0.79374999999999996        0.0000000000000000     
  0.14687500000000001       0.79062500000000002        0.0000000000000000     
  0.21875000000000000       0.75000000000000000        0.0000000000000000     
  0.25000000000000000       0.75000000000000000        0.0000000000000000     
  0.25000000000000000       0.78125000000000000        0.0000000000000000     
  0.20624999999999999       0.76875000000000004        0.0000000000000000     
  0.22812499999999999       0.77187499999999998        0.0000000000000000     
  0.23125000000000001       0.79374999999999996        0.0000000000000000     
  0.20937500000000001       0.79062500000000002        0.0000000000000000     
  0.28125000000000000       0.93750000000000000        0.0000000000000000     
  0.31250000000000000       0.93750000000000000        0.0000000000000000     
  0.31250000000000000       0.96875000000000000        0.0000000000000000     
  0.26874999999999999       0.95625000000000004        0.0000000000000000     
  0.29062500000000002       0.95937499999999998        0.0000000000000000     
  0.29375000000000001       0.98124999999999996        0.0000000000000000     
  0.27187499999999998       0.97812500000000002        0.0000000000000000     
  0.34375000000000000       0.93750000000000000        0.0000000000000000     
  0.37500000000000000       0.93750000000000000        0.0000000000000000     
  0.37500000000000000       0.96875000000000000        0.0000000000000000     
  0.33124999999999999       0.95625000000000004        0.0000000000000000     
  0.35312500000000002       0.95937499999999998        0.0000000000000000     
  0.35625000000000001       0.98124999999999996        0.0000000000000000     
[...]
 CELL_DATA        3584
 SCALARS VEGF float
 LOOKUP_TABLE default
    0.38188270807359714956E-08
    0.44500268868992239193E-08
    0.31315791781937933565E-08
    0.32446152522184868692E-08
    0.45086946569354134408E-08
    0.36854392718519596792E-08
    0.49647420273410032159E-08
    0.40845486894234709119E-08
    0.40968392468694872624E-08
    0.42823005153561495475E-08
    0.40619718651830667741E-08
    0.47130159118091470919E-08
    0.42569611411184034668E-08
    0.42855947714162207189E-08
    0.23491612819141498045E-08
    0.29389088779205797257E-08
    0.20855578293834311868E-08
    0.24950976535529275419E-08
    0.35884625534825931468E-08
    0.30381721607401630424E-08
    0.41630932391262986486E-08
    0.32540071649872416710E-08
    0.42240105637786141725E-08
    0.36647702935692063824E-08
    0.38139630913868405128E-08
    0.29158748105331872903E-08
    0.30357670138650587672E-08
    0.30063186548646686205E-08
    0.32142544862390687495E-08
    0.35858135396571589671E-08
    0.24444759951110662287E-08
    0.22652476834243790651E-08
    0.29662698050506207592E-08
    0.22500576788657645551E-08
    0.30272754886140021010E-08
    0.38252160676056912019E-08
    0.35522404839339338843E-08
    0.44345709447574544026E-08
    0.32989947925983042085E-08
    0.39641671150894546638E-08
    0.30370175022168927960E-08
    0.30948392356955013587E-08
    0.22887231767089482293E-08
    0.28479454198540151759E-08
    0.38024080907095541594E-08
    0.39166666391092242989E-08
    0.28087143405556616893E-08
    0.21273360880798780226E-08
    0.20529401127073460351E-08
    0.23299848303713756209E-08
    0.20281507408813781683E-08
    0.21921641788555439396E-08
    0.23299599090080395280E-08
    0.20128123427303464771E-08
    0.17614150806077514196E-08
    0.17719315700142941620E-08
    0.25406680317243231154E-08
    0.33982972774097889864E-08
    0.36982301585790280402E-08
    0.38854879791712304641E-08
    0.40411009110290426200E-08
    0.33385099140208820429E-08
    0.41873560834117289923E-08
    0.31244713066901628307E-08
    0.38606704440865054526E-08
    0.31755051254424250207E-08
    0.34874118982966265055E-08
    0.24583834389453318606E-08
    0.30451904313886244482E-08
    0.30448166028688273753E-08
    0.83152869323076721016E-08
    0.90912841448801314161E-08
    0.15515059082656577823E-07
    0.13121923061163842393E-07
    0.80500292685203997238E-08
    0.58938148781174864010E-08
    0.56036714440988426313E-08
    0.43267742846967877458E-08
    0.44136319566473524320E-08
    0.36791094916453459164E-08
    0.49430440925741638816E-08
    0.45954148373302282587E-08
    0.56112869018033920926E-08
    0.53454764015308198583E-08
    0.12792858378052987892E-07
    0.15738181169903800935E-07
    0.32560601739135287858E-07
    0.30215561676514494446E-07
    0.14170672975951626163E-07
    0.97862427084592704200E-08
    0.48955694564121747699E-08
    0.49238432028951747583E-08
    0.26085857544647324557E-08
    0.26780508049958248463E-08
    0.50923405720026490037E-08
    0.54537747217483614218E-08
    0.77316197083860419723E-08
    0.75123695008950888604E-08
    0.10615700312916335256E-06
    0.11406714914436990634E-06
    0.23012263296761477473E-06
    0.19570444284688199533E-06
    0.88909082024494934119E-07
    0.56286567936786243128E-07
    0.24536188262709173604E-07
    0.26119430101292847178E-07
    0.11617457236293645447E-07
    0.13178870789254866202E-07
    0.33020041241272944724E-07
    0.43653120595387173640E-07
    0.55393971579775901009E-07
    0.50972343961443124988E-07
    0.35253613973824290817E-08
    0.40528643613965898121E-08
    0.38474146698136535512E-08
    0.38944062306635394247E-08
    0.34504987855749723045E-08
    0.24787316007662003138E-08
    0.26198133638398013024E-08
    0.35335115382311598388E-08
    0.30984163018031464059E-08
    0.40996855983614579615E-08
    0.31901284540614728827E-08
    0.40027220850276630814E-08
    0.30962985103650107434E-08
    0.31286102732694497525E-08
    0.99601208104022594014E-08
    0.14226564586220986608E-07
    0.30115131759823031309E-07
    0.32692592159154912599E-07
    0.15726087267307394617E-07
    0.12670238502534043212E-07
    0.55472916430803689499E-08
    0.51341611655339588376E-08
    0.25634427450515632516E-08
    0.28105472885066814340E-08
    0.49496816532663963647E-08
    0.48723497233534324166E-08
    0.75264823197952763579E-08
    0.77705929034722393474E-08
    0.60827509879689175373E-08
    0.80645995360931701987E-08
    0.13086173586465725014E-07
    0.15714315286475733185E-07
    0.91483151395203154445E-08
    0.82605614648828837067E-08
    0.47667026808654563653E-08
    0.49965031520705683524E-08
    0.36104562804773029966E-08
    0.46591961505886037456E-08
    0.43968582451502871290E-08
    0.54219506064347294526E-08
    0.54011859197270379050E-08
    0.56996523494218369244E-08
    0.56462703139590700865E-07
    0.88968046460956125074E-07
    0.19560652376802613704E-06
    0.23025792743504749988E-06
    0.11406030104740631344E-06
    0.10604214146580086078E-06
    0.43757483890063436381E-07
    0.33070093998654634919E-07
    0.13073913207694332083E-07
    0.11826754686651515321E-07
    0.26150172454024791645E-07
    0.24516107173393954357E-07
    0.50991130366431910596E-07
    0.55438414907243301087E-07
    0.12217654638309380183E-06
    0.16048267161026581731E-06
    0.34131565665207783906E-06
    0.34143376319181151008E-06
    0.16045372898869884503E-06
    0.12204098997013556797E-06
    0.50694716666275395458E-07
    0.45324573440613453250E-07
    0.18209181724521250931E-07
    0.18362363611140080720E-07
    0.45309116518295744255E-07
    0.50618978940242548289E-07
    0.84149737919688860604E-07
    0.84163982768961708089E-07
    0.11490949841556672405E-05
    0.13351387155190133772E-05
    0.26447730747109160416E-05
    0.24270701767200943041E-05
    0.11669815499702147176E-05
    0.81689663303946350791E-06
    0.35963530980330914608E-06
    0.35547523655526004175E-06
    0.15545336498039567023E-06
    0.16774684041077754988E-06
    0.40707218080743905219E-06
    0.49856461256253388997E-06
    0.70331423952452958687E-06
    0.67257562641287130109E-06
    0.81703445770464662857E-06
    0.11670135352257657043E-05
    0.24269543258794925494E-05
    0.26448942079967630965E-05
    0.13351150017983167256E-05
    0.11489672058412009898E-05
    0.49865127299013105420E-06
    0.40709605650810020359E-06
    0.16760368420546246759E-06
    0.15561430407925753194E-06
    0.35546491170257879213E-06
    0.35956288209549592101E-06
    0.67256616126585917458E-06
    0.70333405521071657591E-06
    0.83873835469184850196E-05
    0.10682884378915159497E-04
    0.20713936119707033063E-04
    0.20714055859220791510E-04
    0.10682858367906672634E-04
    0.83872548839640658652E-05
    0.38788711119961320916E-05
    0.35303997862220767650E-05
    0.15916493370670353179E-05
    0.15918002352995778239E-05
    0.35303808844497590522E-05
    0.38787872846347377584E-05
    0.61575791951672993271E-05
    0.61575943623534895179E-05
    0.38351604731614343026E-07
    0.35073845627718237365E-07
    0.64351128877839343066E-07
    0.48382132304680932578E-07
    0.23944366723609414154E-07
    0.15306636208360310336E-07
    0.11337369297796962731E-07
    0.98456142099319960538E-08
    0.75562158701579648170E-08
    0.69417393801850239528E-08
    0.12803580931174227506E-07
    0.16960451231309675467E-07
    0.17610463129508176697E-07
    0.15628260242624877966E-07
    0.13655705197318685428E-06
    0.10988221734367613786E-06
    0.19082196385272126101E-06
    0.13269187517512414570E-06
    0.63367949067998179433E-07
    0.36944192899602940160E-07
    0.25710115056444442768E-07
    0.25314892126536634705E-07
    0.17506586674690723170E-07
    0.18063369114187161180E-07
    0.38423386774163268572E-07
    0.60293494509267311156E-07
    0.52581539447559400503E-07
    0.44281799285168661164E-07
    0.61295395215578209952E-06
    0.58193489438533957569E-06
    0.10863449570836368874E-05
    0.85505815231928631803E-06
    0.39699820225400232153E-06
    0.23334451721314607142E-06
    0.10525769207486802099E-06
    0.12392490764938934958E-06
    0.58309909973684454956E-07
    0.72075126180201093612E-07
    0.18215155008372005917E-06
    0.26484265910197270012E-06
    0.28436649170081984153E-06
    0.25048279279037376882E-06
    0.23404710747688655419E-05
    0.19784056254978685530E-05
    0.33800051339163360412E-05
    0.24808915899250088111E-05
    0.11868976162593028859E-05
    0.65259756333144352361E-06
    0.31325608658217726263E-06
    0.40804806563012604678E-06
    0.21124273886087847856E-06
    0.28054483091335233871E-06
    0.68658425154886862757E-06
    0.10743880363900233583E-05
    0.97598301192183479610E-06
    0.82607858739519227986E-06
    0.33376417916615150562E-06
    0.24063413559357948317E-06
    0.38377684002836404766E-06
    0.24990299606310215116E-06
    0.12086295987316753860E-06
    0.65780554540006025011E-07
    0.47085764833271414497E-07
    0.51618488937906476083E-07
    0.36983030540278169426E-07
    0.41626292857187739470E-07
    0.90160688732334378486E-07
    0.15471736082403542430E-06
    0.11461190337965704115E-06
    0.92575197889724433557E-07
    0.54969192770928426348E-06
    0.35822347913556207261E-06
    0.51845044061797649270E-06
    0.31789261511059349815E-06
    0.15804377393781196235E-06
    0.81173511956546798955E-07
    0.61644483833237888500E-07
    0.74396178037421727438E-07
    0.57935843424647735454E-07
    0.69831139926259286963E-07
    0.14805077171783752297E-06
    0.27117725315359953669E-06
    0.17176886359747661997E-06
    0.13362884825451012332E-06
    0.59068641836116275896E-05
    0.44789055198120663885E-05
    0.69594851025551805301E-05
    0.47887259499577871597E-05
    0.23665909138100827176E-05
    0.12228869634843243421E-05
    0.62878253823002544663E-06
    0.90401344446910876895E-06
    0.51902276956329780520E-06
    0.73626083010980294203E-06
    0.17328244216946886960E-05
    0.28943998611244558241E-05
    0.22337226736950882348E-05
    0.18202860398188030672E-05
    0.98893819034998907061E-05
    0.67660446653210202166E-05
    0.95003338582428656437E-05
    0.61478938151125056137E-05
    0.31449769681823385076E-05
    0.15317671780397261013E-05
    0.84683793584322590961E-06
    0.13418700493345211606E-05
    0.85741973357401733578E-06
    0.12950071009698360113E-05
    0.29258655160232807738E-05
    0.51921630561502389237E-05
    0.34136019748376033347E-05
    0.26806779850053520732E-05
    0.71833509452177670340E-05
    0.73349541588199194370E-05
    0.13358694408445927841E-04
    0.11264528283280625083E-04
    0.55726130812521457554E-05
    0.35987096180411830657E-05
    0.16959575537584591536E-05
    0.18698554586885298730E-05
    0.90399209683911971739E-06
    0.10526124808182425589E-05
    0.24686388077188377089E-05
    0.32950131499715115895E-05
    0.38792453380941409238E-05
    0.35466266092309239680E-05
    0.28981868558022547968E-04
    0.26102138271533774702E-04
    0.43318915342328782989E-04
    0.33876243025255036400E-04
    0.17306300688016772697E-04
    0.10398795068179317482E-04
    0.52618901366072643635E-05
    0.64483552717666241266E-05
    0.34648075712794885705E-05
    0.43406755707157579867E-05
    0.97921110133362990283E-05
    0.14158924333263827198E-04
    0.13909770819098777938E-04
    0.12190951634666735562E-04
    0.58223561797212945355E-04
    0.64863596278483964547E-04
    0.11591780169870951548E-03
    0.10523381347559500440E-03
    0.55579769704868558166E-04
    0.39641597012604529767E-04
    0.19655331846707943565E-04
    0.20146989855935980426E-04
    0.10044046629026380364E-04
    0.10904442021884725927E-04
    0.23476084628988834875E-04
    0.28338615594003149751E-04
    0.37229144317765568292E-04
    0.35436523846534486869E-04
    0.25664557558502198000E-03
    0.24728060003510114566E-03
    0.39978603515449244628E-03
    0.33278929144611946395E-03
    0.18158080404476024884E-03
    0.11923654471989258660E-03
    0.63713506083449783046E-04
    0.73299129316886237171E-04
    0.40810970453658348424E-04
    0.48102328680585747071E-04
    0.99944496342612549299E-04
    0.13292624543490079068E-03
    0.14224207004830480088E-03
    0.12904552220559261950E-03
    0.75423433799585390966E-04
    0.60600719797279284959E-04
    0.91190568793849760836E-04
    0.66681108974994292011E-04
    0.35258699227320080953E-04
    0.19839027980795212724E-04
    0.10798072797021586957E-04
    0.14647453730943393556E-04
    0.87663810017905287005E-05
    0.11754155496194023455E-04
    0.25434104485641165189E-04
    0.39469233546120760807E-04
    0.32638792577305931813E-04
    0.27505341364818094508E-04
    0.12833818501546229119E-03
    0.92711359521654079438E-04
    0.12575156318845220936E-03
    0.86296791015750041218E-04
    0.47339278930841709853E-04
    0.25027307252253715712E-04
    0.14692178618552275500E-04
    0.22024899345973399551E-04
    0.14711913100065730813E-04
    0.21037877114602328922E-04
    0.43619970059390687886E-04
    0.72197214382559868015E-04
    0.50529340744080192434E-04
    0.40996355327015463052E-04
    0.69280515038708354210E-03
    0.59025519468331409927E-03
    0.85871028500795923248E-03
    0.66783412543273599181E-03
    0.37848671258845626754E-03
    0.23193194501273126183E-03
    0.13376812872975787547E-03
    0.17107435694141843443E-03
    0.10660560482124648496E-03
    0.13515149339153660515E-03
    0.26893153545863720481E-03
    0.38733824614652697261E-03
    0.34358592216401136893E-03
    0.29915025592108660316E-03
    0.11920932138412834115E-02
    0.91217332066326596920E-03
    0.11917429711519652441E-02
    0.86991541132390708558E-03
    0.51320958965577032247E-03
    0.29470096768719719919E-03
    0.18391426188127125421E-03
    0.26067561467480506723E-03
    0.18186728956574575613E-03
    0.24636905122879022454E-03
    0.46847600967448756182E-03
    0.72163825394229951220E-03
    0.53862735312200133060E-03
    0.45132045184019786146E-03
    0.15495885831549034424E-07
    0.23959380145332141306E-07
    0.48346736862496722822E-07
    0.64550868208174563891E-07
    0.35131683189916401773E-07
    0.38298131874748859850E-07
    0.17133523545574569752E-07
    0.12858362952181095729E-07
    0.68746721669359870952E-08
    0.78029662719998184438E-08
    0.99164541945642075350E-08
    0.11156113208072919275E-07
    0.15684676825021896590E-07
    0.17699671365990314411E-07
    0.23352098478861169384E-06
    0.39705763052442638272E-06
    0.85496056601330197987E-06
    0.10864806455810363146E-05
    0.58192886545877642612E-06
    0.61284036565285951249E-06
    0.26494894007325576990E-06
    0.18220302544856193268E-06
    0.71971878539689555337E-07
    0.58520474585692885265E-07
    0.12395645345533789060E-06
    0.10523810116915911176E-06
    0.25050233195549637479E-06
    0.28441182944465879423E-06
    0.37133480916338757813E-07
    0.63383017213106754270E-07
    0.13265652989655679983E-06
    0.19102177427893324572E-06
    0.10994016643224517173E-06
    0.13650375617732071367E-06
    0.60466831193700305483E-07
    0.38478355701672841840E-07
    0.17996530299292495659E-07
    0.17753501373725810138E-07
    0.25385829703059327613E-07
    0.25528915646417143520E-07
    0.44338309540162994401E-07
    0.52670860490199291943E-07
    0.65277411182468760755E-06
    0.11869571812652943458E-05
    0.24807942542599655760E-05
    0.33801410286010823276E-05
    0.19783997523991544637E-05
    0.23403575763110778482E-05
    0.10744945657812164998E-05
    0.68663593130329594542E-06
    0.28044182766648808491E-06
    0.21145348321665992322E-06
    0.40807973744444097753E-06
    0.31323657429893098085E-06
    0.82609826352048921710E-06
    0.97602850122357942940E-06
    0.35988472318916856419E-05
    0.55726443999967346181E-05
    0.11264410251032372023E-04
    0.13358812075308482383E-04
    0.73349295552322229996E-05
    0.71832229331933041103E-05
    0.32951012391095869587E-05
    0.24686637389929285872E-05
    0.10524709711448061344E-05
    0.90415425786681491553E-06
    0.18698456861836439421E-05
    0.16958854087778374951E-05
    0.35466172488601966332E-05
    0.38792653122512729813E-05
    0.39641710093248147138E-04
    0.55579770760454542456E-04
    0.10523363741270975904E-03
    0.11591786304940241976E-03
    0.64863548277402651126E-04
    0.58223425962430212820E-04
    0.28338698218032722928E-04
    0.23476099691765571503E-04
    0.10904290591571453534E-04
    0.10044196378514619631E-04
    0.20146965300943429840E-04
    0.19655241773568122887E-04
    0.35436496763982445232E-04
    0.37229148307546628348E-04
    0.10398933475748661998E-04
    0.17306332748586097253E-04
    0.33876127124435834539E-04
    0.43319031123096358603E-04
    0.26102111293994695909E-04
    0.28981733945394161340E-04
    0.14159009791600062628E-04
    0.97921348770615767665E-05
    0.43405337679558118598E-05
    0.34649696806790015036E-05
    0.64483454889994052794E-05
    0.52618182518184553178E-05
    0.12190942020922579812E-04
    0.13909789973414410179E-04
    0.11923665057785849360E-03
    0.18158075505188587553E-03
    0.33278898786833231499E-03
    0.39978578540641530100E-03
    0.24728038512492300479E-03
    0.25664522215633944670E-03
    0.13292624461048527652E-03
    0.99944462582493405153E-04
    0.48102158477232924785E-04
    0.40811108456400415148E-04
    0.73299085866237640471E-04
    0.63713410549667482048E-04
    0.12904544841788934996E-03
    0.14224200704497305539E-03
    0.65969845687100204276E-07
    0.12087803891147638952E-06
    0.24986766704533760480E-06
    0.38397667801607964441E-06
    0.24069211524609897991E-06
    0.33371092836880393528E-06
    0.15489073903902761208E-06
    0.90215683218590768701E-07
    0.41559480446293384054E-07
    0.37229962387665867978E-07
    0.51689438136694985499E-07
    0.46904571337029904255E-07
    0.92631722651204927864E-07
    0.11470124556652020359E-06
    0.12230635778294111680E-05
    0.23666506938761479104E-05
    0.47886291064702240993E-05
    0.69596218362391701773E-05
    0.44789002226940907418E-05
    0.59067514708755816243E-05
    0.28945067412273561166E-05
    0.17328763056098519494E-05
    0.73615791079588881775E-06
    0.51923357024642597632E-06
    0.90404520587996688092E-06
    0.62876306748215749932E-06
    0.18203059088102994627E-05
    0.22337684253235232031E-05
    0.81362797505893726733E-07
    0.15805884856097293125E-06
    0.31785727916815906041E-06
    0.51865027525738974838E-06
    0.35828146247075281334E-06
    0.54963869127227710636E-06
    0.27135064431716773966E-06
    0.14810576960147388585E-06
    0.69764329016309530926E-07
    0.58182777267875497021E-07
    0.74467127199693640646E-07
    0.61463286840487438324E-07
    0.13368537133897953299E-06
    0.17185820472429626012E-06
    0.15319438029701228944E-05
    0.31450367943521711208E-05
    0.61477970793036002442E-05
    0.95004709031270294687E-05
    0.67660397091910068218E-05
    0.98892699517074684589E-05
    0.51922703847558366843E-05
    0.29259175730939134230E-05
    0.12949042378578918025E-05
    0.85763055602699519411E-06
    0.13419018378379318019E-05
    0.84681846669942522973E-06
    0.26806979290955957358E-05
    0.34136478619114363508E-05
    0.19839168802460332601E-04
    0.35258736857907346178E-04
    0.66681002862531250919E-04
    0.91190697367312103182E-04
    0.60600703471001857810E-04
    0.75423310341985900780E-04
    0.39469323973786150407E-04
    0.25434132240364458997E-04
    0.11754015040433162442E-04
    0.87665442602974549791E-05
    0.14647446346454726169E-04
    0.10798002315626689849E-04
    0.27505336658418345013E-04
    0.32638817655637656723E-04
    0.23193204413570831369E-03
    0.37848663025038940160E-03
    0.66783363548562999380E-03
    0.85870978401208412998E-03
    0.59025489201251801243E-03
    0.69280454452464183736E-03
    0.38733814917899845633E-03
    0.26893149253652017232E-03
    0.13515132579568230986E-03
    0.10660575464918132030E-03
    0.17107433271505370501E-03
    0.13376804598701130182E-03
    0.29915019344917424858E-03